 
             +---------------------------------------------------+
             |                                                   |
             |                   WANNIER90                       |
             |                                                   |
             +---------------------------------------------------+
             |                                                   |
             |        Welcome to the Maximally-Localized         |
             |        Generalized Wannier Functions code         |
             |            http://www.wannier.org                 |
             |                                                   |
             |                                                   |
             |  Wannier90 Developer Group:                       |
             |    Giovanni Pizzi    (EPFL)                       |
             |    Valerio Vitale    (Cambridge)                  |
             |    David Vanderbilt  (Rutgers University)         |
             |    Nicola Marzari    (EPFL)                       |
             |    Ivo Souza         (Universidad del Pais Vasco) |
             |    Arash A. Mostofi  (Imperial College London)    |
             |    Jonathan R. Yates (University of Oxford)       |
             |                                                   |
             |  For the full list of Wannier90 3.x authors,      |
             |  please check the code documentation and the      |
             |  README on the GitHub page of the code            |
             |                                                   |
             |                                                   |
             |  Please cite                                      |
             |                                                   |
             |  [ref] "Wannier90 as a community code:            |
             |        new features and applications",            |
             |        G. Pizzi et al., J. Phys. Cond. Matt. 32,  |
             |        165902 (2020).                             |
             |        http://doi.org/10.1088/1361-648X/ab51ff    |
             |                                                   |
             |  in any publications arising from the use of      |
             |  this code. For the method please cite            |
             |                                                   |
             |  [ref] "Maximally Localized Generalised Wannier   |
             |         Functions for Composite Energy Bands"     |
             |         N. Marzari and D. Vanderbilt              |
             |         Phys. Rev. B 56 12847 (1997)              |
             |                                                   |
             |  [ref] "Maximally Localized Wannier Functions     |
             |         for Entangled Energy Bands"               |
             |         I. Souza, N. Marzari and D. Vanderbilt    |
             |         Phys. Rev. B 65 035109 (2001)             |
             |                                                   |
             |                                                   |
             | Copyright (c) 1996-2020                           |
             |        The Wannier90 Developer Group and          |
             |        individual contributors                    |
             |                                                   |
             |      Release: 3.1.0        5th March    2020      |
             |                                                   |
             | This program is free software; you can            |
             | redistribute it and/or modify it under the terms  |
             | of the GNU General Public License as published by |
             | the Free Software Foundation; either version 2 of |
             | the License, or (at your option) any later version|
             |                                                   |
             | This program is distributed in the hope that it   |
             | will be useful, but WITHOUT ANY WARRANTY; without |
             | even the implied warranty of MERCHANTABILITY or   |
             | FITNESS FOR A PARTICULAR PURPOSE. See the GNU     |
             | General Public License for more details.          |
             |                                                   |
             | You should have received a copy of the GNU General|
             | Public License along with this program; if not,   |
             | write to the Free Software Foundation, Inc.,      |
             | 675 Mass Ave, Cambridge, MA 02139, USA.           |
             |                                                   |
             +---------------------------------------------------+
             |    Execution started on 10Apr2023 at 21:03:04     |
             +---------------------------------------------------+
 
 ******************************************************************************
 * -> Using CODATA 2006 constant values                                       *
 *    (http://physics.nist.gov/cuu/Constants/index.html)                      *
 * -> Using Bohr value from CODATA                                            *
 ******************************************************************************
 

 Running in serial (with serial executable)
 
                                    ------
                                    SYSTEM
                                    ------
 
                              Lattice Vectors (Ang)
                    a_1     2.943410   0.000000   0.000000
                    a_2     1.471705   2.549068   0.000000
                    a_3     1.471705   0.849689   2.403281
 
                   Unit Cell Volume:      18.03170  (Ang^3)
 
                        Reciprocal-Space Vectors (Ang^-1)
                    b_1     2.134662  -1.232448  -0.871473
                    b_2     0.000000   2.464895  -0.871473
                    b_3     0.000000   0.000000   2.614420
  
 *----------------------------------------------------------------------------*
 |   Site       Fractional Coordinate          Cartesian Coordinate (Ang)     |
 +----------------------------------------------------------------------------+
 | Ni   1   0.00000   0.00000   0.00000   |    0.00000   0.00000   0.00000    |
 | O    1   0.50000   0.50000   0.50000   |    2.94341   1.69938   1.20164    |
 *----------------------------------------------------------------------------*
                                -----------
                                PROJECTIONS
                                -----------
  
 +----------------------------------------------------------------------------+
 |     Frac. Coord.   l mr  r        z-axis               x-axis          Z/a |
 +----------------------------------------------------------------------------+
 |  0.00  0.00  0.00  2  1  1  0.000  0.000  1.000  1.000  0.000  0.000   1.0 |
 |  0.00  0.00  0.00  2  2  1  0.000  0.000  1.000  1.000  0.000  0.000   1.0 |
 |  0.00  0.00  0.00  2  3  1  0.000  0.000  1.000  1.000  0.000  0.000   1.0 |
 |  0.00  0.00  0.00  2  4  1  0.000  0.000  1.000  1.000  0.000  0.000   1.0 |
 |  0.00  0.00  0.00  2  5  1  0.000  0.000  1.000  1.000  0.000  0.000   1.0 |
 |  0.50  0.50  0.50  1  1  1  0.000  0.000  1.000  1.000  0.000  0.000   1.0 |
 |  0.50  0.50  0.50  1  2  1  0.000  0.000  1.000  1.000  0.000  0.000   1.0 |
 |  0.50  0.50  0.50  1  3  1  0.000  0.000  1.000  1.000  0.000  0.000   1.0 |
 +----------------------------------------------------------------------------+
  
                                ------------
                                K-POINT GRID
                                ------------
  
             Grid size = 10 x 10 x 10      Total points = 1000
  
 *----------------------------------------------------------------------------*
 | k-point      Fractional Coordinate        Cartesian Coordinate (Ang^-1)    |
 +----------------------------------------------------------------------------+
 |     1    0.00000   0.00000   0.00000   |    0.00000   0.00000   0.00000    |
 |     2    0.00000   0.00000   0.10000   |    0.00000   0.00000   0.26144    |
 |     3    0.00000   0.00000   0.20000   |    0.00000   0.00000   0.52288    |
 |     4    0.00000   0.00000   0.30000   |    0.00000   0.00000   0.78433    |
 |     5    0.00000   0.00000   0.40000   |    0.00000   0.00000   1.04577    |
 |     6    0.00000   0.00000   0.50000   |    0.00000   0.00000   1.30721    |
 |     7    0.00000   0.00000   0.60000   |    0.00000   0.00000   1.56865    |
 |     8    0.00000   0.00000   0.70000   |    0.00000   0.00000   1.83009    |
 |     9    0.00000   0.00000   0.80000   |    0.00000   0.00000   2.09154    |
 |    10    0.00000   0.00000   0.90000   |    0.00000   0.00000   2.35298    |
 |    11    0.00000   0.10000   0.00000   |    0.00000   0.24649  -0.08715    |
 |    12    0.00000   0.10000   0.10000   |    0.00000   0.24649   0.17429    |
 |    13    0.00000   0.10000   0.20000   |    0.00000   0.24649   0.43574    |
 |    14    0.00000   0.10000   0.30000   |    0.00000   0.24649   0.69718    |
 |    15    0.00000   0.10000   0.40000   |    0.00000   0.24649   0.95862    |
 |    16    0.00000   0.10000   0.50000   |    0.00000   0.24649   1.22006    |
 |    17    0.00000   0.10000   0.60000   |    0.00000   0.24649   1.48150    |
 |    18    0.00000   0.10000   0.70000   |    0.00000   0.24649   1.74295    |
 |    19    0.00000   0.10000   0.80000   |    0.00000   0.24649   2.00439    |
 |    20    0.00000   0.10000   0.90000   |    0.00000   0.24649   2.26583    |
 |    21    0.00000   0.20000   0.00000   |    0.00000   0.49298  -0.17429    |
 |    22    0.00000   0.20000   0.10000   |    0.00000   0.49298   0.08715    |
 |    23    0.00000   0.20000   0.20000   |    0.00000   0.49298   0.34859    |
 |    24    0.00000   0.20000   0.30000   |    0.00000   0.49298   0.61003    |
 |    25    0.00000   0.20000   0.40000   |    0.00000   0.49298   0.87147    |
 |    26    0.00000   0.20000   0.50000   |    0.00000   0.49298   1.13292    |
 |    27    0.00000   0.20000   0.60000   |    0.00000   0.49298   1.39436    |
 |    28    0.00000   0.20000   0.70000   |    0.00000   0.49298   1.65580    |
 |    29    0.00000   0.20000   0.80000   |    0.00000   0.49298   1.91724    |
 |    30    0.00000   0.20000   0.90000   |    0.00000   0.49298   2.17868    |
 |    31    0.00000   0.30000   0.00000   |    0.00000   0.73947  -0.26144    |
 |    32    0.00000   0.30000   0.10000   |    0.00000   0.73947  -0.00000    |
 |    33    0.00000   0.30000   0.20000   |    0.00000   0.73947   0.26144    |
 |    34    0.00000   0.30000   0.30000   |    0.00000   0.73947   0.52288    |
 |    35    0.00000   0.30000   0.40000   |    0.00000   0.73947   0.78433    |
 |    36    0.00000   0.30000   0.50000   |    0.00000   0.73947   1.04577    |
 |    37    0.00000   0.30000   0.60000   |    0.00000   0.73947   1.30721    |
 |    38    0.00000   0.30000   0.70000   |    0.00000   0.73947   1.56865    |
 |    39    0.00000   0.30000   0.80000   |    0.00000   0.73947   1.83009    |
 |    40    0.00000   0.30000   0.90000   |    0.00000   0.73947   2.09154    |
 |    41    0.00000   0.40000   0.00000   |    0.00000   0.98596  -0.34859    |
 |    42    0.00000   0.40000   0.10000   |    0.00000   0.98596  -0.08715    |
 |    43    0.00000   0.40000   0.20000   |    0.00000   0.98596   0.17429    |
 |    44    0.00000   0.40000   0.30000   |    0.00000   0.98596   0.43574    |
 |    45    0.00000   0.40000   0.40000   |    0.00000   0.98596   0.69718    |
 |    46    0.00000   0.40000   0.50000   |    0.00000   0.98596   0.95862    |
 |    47    0.00000   0.40000   0.60000   |    0.00000   0.98596   1.22006    |
 |    48    0.00000   0.40000   0.70000   |    0.00000   0.98596   1.48150    |
 |    49    0.00000   0.40000   0.80000   |    0.00000   0.98596   1.74295    |
 |    50    0.00000   0.40000   0.90000   |    0.00000   0.98596   2.00439    |
 |    51    0.00000   0.50000   0.00000   |    0.00000   1.23245  -0.43574    |
 |    52    0.00000   0.50000   0.10000   |    0.00000   1.23245  -0.17429    |
 |    53    0.00000   0.50000   0.20000   |    0.00000   1.23245   0.08715    |
 |    54    0.00000   0.50000   0.30000   |    0.00000   1.23245   0.34859    |
 |    55    0.00000   0.50000   0.40000   |    0.00000   1.23245   0.61003    |
 |    56    0.00000   0.50000   0.50000   |    0.00000   1.23245   0.87147    |
 |    57    0.00000   0.50000   0.60000   |    0.00000   1.23245   1.13292    |
 |    58    0.00000   0.50000   0.70000   |    0.00000   1.23245   1.39436    |
 |    59    0.00000   0.50000   0.80000   |    0.00000   1.23245   1.65580    |
 |    60    0.00000   0.50000   0.90000   |    0.00000   1.23245   1.91724    |
 |    61    0.00000   0.60000   0.00000   |    0.00000   1.47894  -0.52288    |
 |    62    0.00000   0.60000   0.10000   |    0.00000   1.47894  -0.26144    |
 |    63    0.00000   0.60000   0.20000   |    0.00000   1.47894  -0.00000    |
 |    64    0.00000   0.60000   0.30000   |    0.00000   1.47894   0.26144    |
 |    65    0.00000   0.60000   0.40000   |    0.00000   1.47894   0.52288    |
 |    66    0.00000   0.60000   0.50000   |    0.00000   1.47894   0.78433    |
 |    67    0.00000   0.60000   0.60000   |    0.00000   1.47894   1.04577    |
 |    68    0.00000   0.60000   0.70000   |    0.00000   1.47894   1.30721    |
 |    69    0.00000   0.60000   0.80000   |    0.00000   1.47894   1.56865    |
 |    70    0.00000   0.60000   0.90000   |    0.00000   1.47894   1.83009    |
 |    71    0.00000   0.70000   0.00000   |    0.00000   1.72543  -0.61003    |
 |    72    0.00000   0.70000   0.10000   |    0.00000   1.72543  -0.34859    |
 |    73    0.00000   0.70000   0.20000   |    0.00000   1.72543  -0.08715    |
 |    74    0.00000   0.70000   0.30000   |    0.00000   1.72543   0.17429    |
 |    75    0.00000   0.70000   0.40000   |    0.00000   1.72543   0.43574    |
 |    76    0.00000   0.70000   0.50000   |    0.00000   1.72543   0.69718    |
 |    77    0.00000   0.70000   0.60000   |    0.00000   1.72543   0.95862    |
 |    78    0.00000   0.70000   0.70000   |    0.00000   1.72543   1.22006    |
 |    79    0.00000   0.70000   0.80000   |    0.00000   1.72543   1.48150    |
 |    80    0.00000   0.70000   0.90000   |    0.00000   1.72543   1.74295    |
 |    81    0.00000   0.80000   0.00000   |    0.00000   1.97192  -0.69718    |
 |    82    0.00000   0.80000   0.10000   |    0.00000   1.97192  -0.43574    |
 |    83    0.00000   0.80000   0.20000   |    0.00000   1.97192  -0.17429    |
 |    84    0.00000   0.80000   0.30000   |    0.00000   1.97192   0.08715    |
 |    85    0.00000   0.80000   0.40000   |    0.00000   1.97192   0.34859    |
 |    86    0.00000   0.80000   0.50000   |    0.00000   1.97192   0.61003    |
 |    87    0.00000   0.80000   0.60000   |    0.00000   1.97192   0.87147    |
 |    88    0.00000   0.80000   0.70000   |    0.00000   1.97192   1.13292    |
 |    89    0.00000   0.80000   0.80000   |    0.00000   1.97192   1.39436    |
 |    90    0.00000   0.80000   0.90000   |    0.00000   1.97192   1.65580    |
 |    91    0.00000   0.90000   0.00000   |    0.00000   2.21841  -0.78433    |
 |    92    0.00000   0.90000   0.10000   |    0.00000   2.21841  -0.52288    |
 |    93    0.00000   0.90000   0.20000   |    0.00000   2.21841  -0.26144    |
 |    94    0.00000   0.90000   0.30000   |    0.00000   2.21841  -0.00000    |
 |    95    0.00000   0.90000   0.40000   |    0.00000   2.21841   0.26144    |
 |    96    0.00000   0.90000   0.50000   |    0.00000   2.21841   0.52288    |
 |    97    0.00000   0.90000   0.60000   |    0.00000   2.21841   0.78433    |
 |    98    0.00000   0.90000   0.70000   |    0.00000   2.21841   1.04577    |
 |    99    0.00000   0.90000   0.80000   |    0.00000   2.21841   1.30721    |
 |   100    0.00000   0.90000   0.90000   |    0.00000   2.21841   1.56865    |
 |   101    0.10000   0.00000   0.00000   |    0.21347  -0.12324  -0.08715    |
 |   102    0.10000   0.00000   0.10000   |    0.21347  -0.12324   0.17429    |
 |   103    0.10000   0.00000   0.20000   |    0.21347  -0.12324   0.43574    |
 |   104    0.10000   0.00000   0.30000   |    0.21347  -0.12324   0.69718    |
 |   105    0.10000   0.00000   0.40000   |    0.21347  -0.12324   0.95862    |
 |   106    0.10000   0.00000   0.50000   |    0.21347  -0.12324   1.22006    |
 |   107    0.10000   0.00000   0.60000   |    0.21347  -0.12324   1.48150    |
 |   108    0.10000   0.00000   0.70000   |    0.21347  -0.12324   1.74295    |
 |   109    0.10000   0.00000   0.80000   |    0.21347  -0.12324   2.00439    |
 |   110    0.10000   0.00000   0.90000   |    0.21347  -0.12324   2.26583    |
 |   111    0.10000   0.10000   0.00000   |    0.21347   0.12324  -0.17429    |
 |   112    0.10000   0.10000   0.10000   |    0.21347   0.12324   0.08715    |
 |   113    0.10000   0.10000   0.20000   |    0.21347   0.12324   0.34859    |
 |   114    0.10000   0.10000   0.30000   |    0.21347   0.12324   0.61003    |
 |   115    0.10000   0.10000   0.40000   |    0.21347   0.12324   0.87147    |
 |   116    0.10000   0.10000   0.50000   |    0.21347   0.12324   1.13292    |
 |   117    0.10000   0.10000   0.60000   |    0.21347   0.12324   1.39436    |
 |   118    0.10000   0.10000   0.70000   |    0.21347   0.12324   1.65580    |
 |   119    0.10000   0.10000   0.80000   |    0.21347   0.12324   1.91724    |
 |   120    0.10000   0.10000   0.90000   |    0.21347   0.12324   2.17868    |
 |   121    0.10000   0.20000   0.00000   |    0.21347   0.36973  -0.26144    |
 |   122    0.10000   0.20000   0.10000   |    0.21347   0.36973  -0.00000    |
 |   123    0.10000   0.20000   0.20000   |    0.21347   0.36973   0.26144    |
 |   124    0.10000   0.20000   0.30000   |    0.21347   0.36973   0.52288    |
 |   125    0.10000   0.20000   0.40000   |    0.21347   0.36973   0.78433    |
 |   126    0.10000   0.20000   0.50000   |    0.21347   0.36973   1.04577    |
 |   127    0.10000   0.20000   0.60000   |    0.21347   0.36973   1.30721    |
 |   128    0.10000   0.20000   0.70000   |    0.21347   0.36973   1.56865    |
 |   129    0.10000   0.20000   0.80000   |    0.21347   0.36973   1.83009    |
 |   130    0.10000   0.20000   0.90000   |    0.21347   0.36973   2.09154    |
 |   131    0.10000   0.30000   0.00000   |    0.21347   0.61622  -0.34859    |
 |   132    0.10000   0.30000   0.10000   |    0.21347   0.61622  -0.08715    |
 |   133    0.10000   0.30000   0.20000   |    0.21347   0.61622   0.17429    |
 |   134    0.10000   0.30000   0.30000   |    0.21347   0.61622   0.43574    |
 |   135    0.10000   0.30000   0.40000   |    0.21347   0.61622   0.69718    |
 |   136    0.10000   0.30000   0.50000   |    0.21347   0.61622   0.95862    |
 |   137    0.10000   0.30000   0.60000   |    0.21347   0.61622   1.22006    |
 |   138    0.10000   0.30000   0.70000   |    0.21347   0.61622   1.48150    |
 |   139    0.10000   0.30000   0.80000   |    0.21347   0.61622   1.74295    |
 |   140    0.10000   0.30000   0.90000   |    0.21347   0.61622   2.00439    |
 |   141    0.10000   0.40000   0.00000   |    0.21347   0.86271  -0.43574    |
 |   142    0.10000   0.40000   0.10000   |    0.21347   0.86271  -0.17429    |
 |   143    0.10000   0.40000   0.20000   |    0.21347   0.86271   0.08715    |
 |   144    0.10000   0.40000   0.30000   |    0.21347   0.86271   0.34859    |
 |   145    0.10000   0.40000   0.40000   |    0.21347   0.86271   0.61003    |
 |   146    0.10000   0.40000   0.50000   |    0.21347   0.86271   0.87147    |
 |   147    0.10000   0.40000   0.60000   |    0.21347   0.86271   1.13292    |
 |   148    0.10000   0.40000   0.70000   |    0.21347   0.86271   1.39436    |
 |   149    0.10000   0.40000   0.80000   |    0.21347   0.86271   1.65580    |
 |   150    0.10000   0.40000   0.90000   |    0.21347   0.86271   1.91724    |
 |   151    0.10000   0.50000   0.00000   |    0.21347   1.10920  -0.52288    |
 |   152    0.10000   0.50000   0.10000   |    0.21347   1.10920  -0.26144    |
 |   153    0.10000   0.50000   0.20000   |    0.21347   1.10920  -0.00000    |
 |   154    0.10000   0.50000   0.30000   |    0.21347   1.10920   0.26144    |
 |   155    0.10000   0.50000   0.40000   |    0.21347   1.10920   0.52288    |
 |   156    0.10000   0.50000   0.50000   |    0.21347   1.10920   0.78433    |
 |   157    0.10000   0.50000   0.60000   |    0.21347   1.10920   1.04577    |
 |   158    0.10000   0.50000   0.70000   |    0.21347   1.10920   1.30721    |
 |   159    0.10000   0.50000   0.80000   |    0.21347   1.10920   1.56865    |
 |   160    0.10000   0.50000   0.90000   |    0.21347   1.10920   1.83009    |
 |   161    0.10000   0.60000   0.00000   |    0.21347   1.35569  -0.61003    |
 |   162    0.10000   0.60000   0.10000   |    0.21347   1.35569  -0.34859    |
 |   163    0.10000   0.60000   0.20000   |    0.21347   1.35569  -0.08715    |
 |   164    0.10000   0.60000   0.30000   |    0.21347   1.35569   0.17429    |
 |   165    0.10000   0.60000   0.40000   |    0.21347   1.35569   0.43574    |
 |   166    0.10000   0.60000   0.50000   |    0.21347   1.35569   0.69718    |
 |   167    0.10000   0.60000   0.60000   |    0.21347   1.35569   0.95862    |
 |   168    0.10000   0.60000   0.70000   |    0.21347   1.35569   1.22006    |
 |   169    0.10000   0.60000   0.80000   |    0.21347   1.35569   1.48150    |
 |   170    0.10000   0.60000   0.90000   |    0.21347   1.35569   1.74295    |
 |   171    0.10000   0.70000   0.00000   |    0.21347   1.60218  -0.69718    |
 |   172    0.10000   0.70000   0.10000   |    0.21347   1.60218  -0.43574    |
 |   173    0.10000   0.70000   0.20000   |    0.21347   1.60218  -0.17429    |
 |   174    0.10000   0.70000   0.30000   |    0.21347   1.60218   0.08715    |
 |   175    0.10000   0.70000   0.40000   |    0.21347   1.60218   0.34859    |
 |   176    0.10000   0.70000   0.50000   |    0.21347   1.60218   0.61003    |
 |   177    0.10000   0.70000   0.60000   |    0.21347   1.60218   0.87147    |
 |   178    0.10000   0.70000   0.70000   |    0.21347   1.60218   1.13292    |
 |   179    0.10000   0.70000   0.80000   |    0.21347   1.60218   1.39436    |
 |   180    0.10000   0.70000   0.90000   |    0.21347   1.60218   1.65580    |
 |   181    0.10000   0.80000   0.00000   |    0.21347   1.84867  -0.78433    |
 |   182    0.10000   0.80000   0.10000   |    0.21347   1.84867  -0.52288    |
 |   183    0.10000   0.80000   0.20000   |    0.21347   1.84867  -0.26144    |
 |   184    0.10000   0.80000   0.30000   |    0.21347   1.84867  -0.00000    |
 |   185    0.10000   0.80000   0.40000   |    0.21347   1.84867   0.26144    |
 |   186    0.10000   0.80000   0.50000   |    0.21347   1.84867   0.52288    |
 |   187    0.10000   0.80000   0.60000   |    0.21347   1.84867   0.78433    |
 |   188    0.10000   0.80000   0.70000   |    0.21347   1.84867   1.04577    |
 |   189    0.10000   0.80000   0.80000   |    0.21347   1.84867   1.30721    |
 |   190    0.10000   0.80000   0.90000   |    0.21347   1.84867   1.56865    |
 |   191    0.10000   0.90000   0.00000   |    0.21347   2.09516  -0.87147    |
 |   192    0.10000   0.90000   0.10000   |    0.21347   2.09516  -0.61003    |
 |   193    0.10000   0.90000   0.20000   |    0.21347   2.09516  -0.34859    |
 |   194    0.10000   0.90000   0.30000   |    0.21347   2.09516  -0.08715    |
 |   195    0.10000   0.90000   0.40000   |    0.21347   2.09516   0.17429    |
 |   196    0.10000   0.90000   0.50000   |    0.21347   2.09516   0.43574    |
 |   197    0.10000   0.90000   0.60000   |    0.21347   2.09516   0.69718    |
 |   198    0.10000   0.90000   0.70000   |    0.21347   2.09516   0.95862    |
 |   199    0.10000   0.90000   0.80000   |    0.21347   2.09516   1.22006    |
 |   200    0.10000   0.90000   0.90000   |    0.21347   2.09516   1.48150    |
 |   201    0.20000   0.00000   0.00000   |    0.42693  -0.24649  -0.17429    |
 |   202    0.20000   0.00000   0.10000   |    0.42693  -0.24649   0.08715    |
 |   203    0.20000   0.00000   0.20000   |    0.42693  -0.24649   0.34859    |
 |   204    0.20000   0.00000   0.30000   |    0.42693  -0.24649   0.61003    |
 |   205    0.20000   0.00000   0.40000   |    0.42693  -0.24649   0.87147    |
 |   206    0.20000   0.00000   0.50000   |    0.42693  -0.24649   1.13292    |
 |   207    0.20000   0.00000   0.60000   |    0.42693  -0.24649   1.39436    |
 |   208    0.20000   0.00000   0.70000   |    0.42693  -0.24649   1.65580    |
 |   209    0.20000   0.00000   0.80000   |    0.42693  -0.24649   1.91724    |
 |   210    0.20000   0.00000   0.90000   |    0.42693  -0.24649   2.17868    |
 |   211    0.20000   0.10000   0.00000   |    0.42693   0.00000  -0.26144    |
 |   212    0.20000   0.10000   0.10000   |    0.42693   0.00000   0.00000    |
 |   213    0.20000   0.10000   0.20000   |    0.42693   0.00000   0.26144    |
 |   214    0.20000   0.10000   0.30000   |    0.42693   0.00000   0.52288    |
 |   215    0.20000   0.10000   0.40000   |    0.42693   0.00000   0.78433    |
 |   216    0.20000   0.10000   0.50000   |    0.42693   0.00000   1.04577    |
 |   217    0.20000   0.10000   0.60000   |    0.42693   0.00000   1.30721    |
 |   218    0.20000   0.10000   0.70000   |    0.42693   0.00000   1.56865    |
 |   219    0.20000   0.10000   0.80000   |    0.42693   0.00000   1.83009    |
 |   220    0.20000   0.10000   0.90000   |    0.42693   0.00000   2.09154    |
 |   221    0.20000   0.20000   0.00000   |    0.42693   0.24649  -0.34859    |
 |   222    0.20000   0.20000   0.10000   |    0.42693   0.24649  -0.08715    |
 |   223    0.20000   0.20000   0.20000   |    0.42693   0.24649   0.17429    |
 |   224    0.20000   0.20000   0.30000   |    0.42693   0.24649   0.43574    |
 |   225    0.20000   0.20000   0.40000   |    0.42693   0.24649   0.69718    |
 |   226    0.20000   0.20000   0.50000   |    0.42693   0.24649   0.95862    |
 |   227    0.20000   0.20000   0.60000   |    0.42693   0.24649   1.22006    |
 |   228    0.20000   0.20000   0.70000   |    0.42693   0.24649   1.48150    |
 |   229    0.20000   0.20000   0.80000   |    0.42693   0.24649   1.74295    |
 |   230    0.20000   0.20000   0.90000   |    0.42693   0.24649   2.00439    |
 |   231    0.20000   0.30000   0.00000   |    0.42693   0.49298  -0.43574    |
 |   232    0.20000   0.30000   0.10000   |    0.42693   0.49298  -0.17429    |
 |   233    0.20000   0.30000   0.20000   |    0.42693   0.49298   0.08715    |
 |   234    0.20000   0.30000   0.30000   |    0.42693   0.49298   0.34859    |
 |   235    0.20000   0.30000   0.40000   |    0.42693   0.49298   0.61003    |
 |   236    0.20000   0.30000   0.50000   |    0.42693   0.49298   0.87147    |
 |   237    0.20000   0.30000   0.60000   |    0.42693   0.49298   1.13292    |
 |   238    0.20000   0.30000   0.70000   |    0.42693   0.49298   1.39436    |
 |   239    0.20000   0.30000   0.80000   |    0.42693   0.49298   1.65580    |
 |   240    0.20000   0.30000   0.90000   |    0.42693   0.49298   1.91724    |
 |   241    0.20000   0.40000   0.00000   |    0.42693   0.73947  -0.52288    |
 |   242    0.20000   0.40000   0.10000   |    0.42693   0.73947  -0.26144    |
 |   243    0.20000   0.40000   0.20000   |    0.42693   0.73947  -0.00000    |
 |   244    0.20000   0.40000   0.30000   |    0.42693   0.73947   0.26144    |
 |   245    0.20000   0.40000   0.40000   |    0.42693   0.73947   0.52288    |
 |   246    0.20000   0.40000   0.50000   |    0.42693   0.73947   0.78433    |
 |   247    0.20000   0.40000   0.60000   |    0.42693   0.73947   1.04577    |
 |   248    0.20000   0.40000   0.70000   |    0.42693   0.73947   1.30721    |
 |   249    0.20000   0.40000   0.80000   |    0.42693   0.73947   1.56865    |
 |   250    0.20000   0.40000   0.90000   |    0.42693   0.73947   1.83009    |
 |   251    0.20000   0.50000   0.00000   |    0.42693   0.98596  -0.61003    |
 |   252    0.20000   0.50000   0.10000   |    0.42693   0.98596  -0.34859    |
 |   253    0.20000   0.50000   0.20000   |    0.42693   0.98596  -0.08715    |
 |   254    0.20000   0.50000   0.30000   |    0.42693   0.98596   0.17429    |
 |   255    0.20000   0.50000   0.40000   |    0.42693   0.98596   0.43574    |
 |   256    0.20000   0.50000   0.50000   |    0.42693   0.98596   0.69718    |
 |   257    0.20000   0.50000   0.60000   |    0.42693   0.98596   0.95862    |
 |   258    0.20000   0.50000   0.70000   |    0.42693   0.98596   1.22006    |
 |   259    0.20000   0.50000   0.80000   |    0.42693   0.98596   1.48150    |
 |   260    0.20000   0.50000   0.90000   |    0.42693   0.98596   1.74295    |
 |   261    0.20000   0.60000   0.00000   |    0.42693   1.23245  -0.69718    |
 |   262    0.20000   0.60000   0.10000   |    0.42693   1.23245  -0.43574    |
 |   263    0.20000   0.60000   0.20000   |    0.42693   1.23245  -0.17429    |
 |   264    0.20000   0.60000   0.30000   |    0.42693   1.23245   0.08715    |
 |   265    0.20000   0.60000   0.40000   |    0.42693   1.23245   0.34859    |
 |   266    0.20000   0.60000   0.50000   |    0.42693   1.23245   0.61003    |
 |   267    0.20000   0.60000   0.60000   |    0.42693   1.23245   0.87147    |
 |   268    0.20000   0.60000   0.70000   |    0.42693   1.23245   1.13292    |
 |   269    0.20000   0.60000   0.80000   |    0.42693   1.23245   1.39436    |
 |   270    0.20000   0.60000   0.90000   |    0.42693   1.23245   1.65580    |
 |   271    0.20000   0.70000   0.00000   |    0.42693   1.47894  -0.78433    |
 |   272    0.20000   0.70000   0.10000   |    0.42693   1.47894  -0.52288    |
 |   273    0.20000   0.70000   0.20000   |    0.42693   1.47894  -0.26144    |
 |   274    0.20000   0.70000   0.30000   |    0.42693   1.47894  -0.00000    |
 |   275    0.20000   0.70000   0.40000   |    0.42693   1.47894   0.26144    |
 |   276    0.20000   0.70000   0.50000   |    0.42693   1.47894   0.52288    |
 |   277    0.20000   0.70000   0.60000   |    0.42693   1.47894   0.78433    |
 |   278    0.20000   0.70000   0.70000   |    0.42693   1.47894   1.04577    |
 |   279    0.20000   0.70000   0.80000   |    0.42693   1.47894   1.30721    |
 |   280    0.20000   0.70000   0.90000   |    0.42693   1.47894   1.56865    |
 |   281    0.20000   0.80000   0.00000   |    0.42693   1.72543  -0.87147    |
 |   282    0.20000   0.80000   0.10000   |    0.42693   1.72543  -0.61003    |
 |   283    0.20000   0.80000   0.20000   |    0.42693   1.72543  -0.34859    |
 |   284    0.20000   0.80000   0.30000   |    0.42693   1.72543  -0.08715    |
 |   285    0.20000   0.80000   0.40000   |    0.42693   1.72543   0.17429    |
 |   286    0.20000   0.80000   0.50000   |    0.42693   1.72543   0.43574    |
 |   287    0.20000   0.80000   0.60000   |    0.42693   1.72543   0.69718    |
 |   288    0.20000   0.80000   0.70000   |    0.42693   1.72543   0.95862    |
 |   289    0.20000   0.80000   0.80000   |    0.42693   1.72543   1.22006    |
 |   290    0.20000   0.80000   0.90000   |    0.42693   1.72543   1.48150    |
 |   291    0.20000   0.90000   0.00000   |    0.42693   1.97192  -0.95862    |
 |   292    0.20000   0.90000   0.10000   |    0.42693   1.97192  -0.69718    |
 |   293    0.20000   0.90000   0.20000   |    0.42693   1.97192  -0.43574    |
 |   294    0.20000   0.90000   0.30000   |    0.42693   1.97192  -0.17429    |
 |   295    0.20000   0.90000   0.40000   |    0.42693   1.97192   0.08715    |
 |   296    0.20000   0.90000   0.50000   |    0.42693   1.97192   0.34859    |
 |   297    0.20000   0.90000   0.60000   |    0.42693   1.97192   0.61003    |
 |   298    0.20000   0.90000   0.70000   |    0.42693   1.97192   0.87147    |
 |   299    0.20000   0.90000   0.80000   |    0.42693   1.97192   1.13292    |
 |   300    0.20000   0.90000   0.90000   |    0.42693   1.97192   1.39436    |
 |   301    0.30000   0.00000   0.00000   |    0.64040  -0.36973  -0.26144    |
 |   302    0.30000   0.00000   0.10000   |    0.64040  -0.36973   0.00000    |
 |   303    0.30000   0.00000   0.20000   |    0.64040  -0.36973   0.26144    |
 |   304    0.30000   0.00000   0.30000   |    0.64040  -0.36973   0.52288    |
 |   305    0.30000   0.00000   0.40000   |    0.64040  -0.36973   0.78433    |
 |   306    0.30000   0.00000   0.50000   |    0.64040  -0.36973   1.04577    |
 |   307    0.30000   0.00000   0.60000   |    0.64040  -0.36973   1.30721    |
 |   308    0.30000   0.00000   0.70000   |    0.64040  -0.36973   1.56865    |
 |   309    0.30000   0.00000   0.80000   |    0.64040  -0.36973   1.83009    |
 |   310    0.30000   0.00000   0.90000   |    0.64040  -0.36973   2.09154    |
 |   311    0.30000   0.10000   0.00000   |    0.64040  -0.12324  -0.34859    |
 |   312    0.30000   0.10000   0.10000   |    0.64040  -0.12324  -0.08715    |
 |   313    0.30000   0.10000   0.20000   |    0.64040  -0.12324   0.17429    |
 |   314    0.30000   0.10000   0.30000   |    0.64040  -0.12324   0.43574    |
 |   315    0.30000   0.10000   0.40000   |    0.64040  -0.12324   0.69718    |
 |   316    0.30000   0.10000   0.50000   |    0.64040  -0.12324   0.95862    |
 |   317    0.30000   0.10000   0.60000   |    0.64040  -0.12324   1.22006    |
 |   318    0.30000   0.10000   0.70000   |    0.64040  -0.12324   1.48150    |
 |   319    0.30000   0.10000   0.80000   |    0.64040  -0.12324   1.74295    |
 |   320    0.30000   0.10000   0.90000   |    0.64040  -0.12324   2.00439    |
 |   321    0.30000   0.20000   0.00000   |    0.64040   0.12324  -0.43574    |
 |   322    0.30000   0.20000   0.10000   |    0.64040   0.12324  -0.17429    |
 |   323    0.30000   0.20000   0.20000   |    0.64040   0.12324   0.08715    |
 |   324    0.30000   0.20000   0.30000   |    0.64040   0.12324   0.34859    |
 |   325    0.30000   0.20000   0.40000   |    0.64040   0.12324   0.61003    |
 |   326    0.30000   0.20000   0.50000   |    0.64040   0.12324   0.87147    |
 |   327    0.30000   0.20000   0.60000   |    0.64040   0.12324   1.13292    |
 |   328    0.30000   0.20000   0.70000   |    0.64040   0.12324   1.39436    |
 |   329    0.30000   0.20000   0.80000   |    0.64040   0.12324   1.65580    |
 |   330    0.30000   0.20000   0.90000   |    0.64040   0.12324   1.91724    |
 |   331    0.30000   0.30000   0.00000   |    0.64040   0.36973  -0.52288    |
 |   332    0.30000   0.30000   0.10000   |    0.64040   0.36973  -0.26144    |
 |   333    0.30000   0.30000   0.20000   |    0.64040   0.36973  -0.00000    |
 |   334    0.30000   0.30000   0.30000   |    0.64040   0.36973   0.26144    |
 |   335    0.30000   0.30000   0.40000   |    0.64040   0.36973   0.52288    |
 |   336    0.30000   0.30000   0.50000   |    0.64040   0.36973   0.78433    |
 |   337    0.30000   0.30000   0.60000   |    0.64040   0.36973   1.04577    |
 |   338    0.30000   0.30000   0.70000   |    0.64040   0.36973   1.30721    |
 |   339    0.30000   0.30000   0.80000   |    0.64040   0.36973   1.56865    |
 |   340    0.30000   0.30000   0.90000   |    0.64040   0.36973   1.83009    |
 |   341    0.30000   0.40000   0.00000   |    0.64040   0.61622  -0.61003    |
 |   342    0.30000   0.40000   0.10000   |    0.64040   0.61622  -0.34859    |
 |   343    0.30000   0.40000   0.20000   |    0.64040   0.61622  -0.08715    |
 |   344    0.30000   0.40000   0.30000   |    0.64040   0.61622   0.17429    |
 |   345    0.30000   0.40000   0.40000   |    0.64040   0.61622   0.43574    |
 |   346    0.30000   0.40000   0.50000   |    0.64040   0.61622   0.69718    |
 |   347    0.30000   0.40000   0.60000   |    0.64040   0.61622   0.95862    |
 |   348    0.30000   0.40000   0.70000   |    0.64040   0.61622   1.22006    |
 |   349    0.30000   0.40000   0.80000   |    0.64040   0.61622   1.48150    |
 |   350    0.30000   0.40000   0.90000   |    0.64040   0.61622   1.74295    |
 |   351    0.30000   0.50000   0.00000   |    0.64040   0.86271  -0.69718    |
 |   352    0.30000   0.50000   0.10000   |    0.64040   0.86271  -0.43574    |
 |   353    0.30000   0.50000   0.20000   |    0.64040   0.86271  -0.17429    |
 |   354    0.30000   0.50000   0.30000   |    0.64040   0.86271   0.08715    |
 |   355    0.30000   0.50000   0.40000   |    0.64040   0.86271   0.34859    |
 |   356    0.30000   0.50000   0.50000   |    0.64040   0.86271   0.61003    |
 |   357    0.30000   0.50000   0.60000   |    0.64040   0.86271   0.87147    |
 |   358    0.30000   0.50000   0.70000   |    0.64040   0.86271   1.13292    |
 |   359    0.30000   0.50000   0.80000   |    0.64040   0.86271   1.39436    |
 |   360    0.30000   0.50000   0.90000   |    0.64040   0.86271   1.65580    |
 |   361    0.30000   0.60000   0.00000   |    0.64040   1.10920  -0.78433    |
 |   362    0.30000   0.60000   0.10000   |    0.64040   1.10920  -0.52288    |
 |   363    0.30000   0.60000   0.20000   |    0.64040   1.10920  -0.26144    |
 |   364    0.30000   0.60000   0.30000   |    0.64040   1.10920  -0.00000    |
 |   365    0.30000   0.60000   0.40000   |    0.64040   1.10920   0.26144    |
 |   366    0.30000   0.60000   0.50000   |    0.64040   1.10920   0.52288    |
 |   367    0.30000   0.60000   0.60000   |    0.64040   1.10920   0.78433    |
 |   368    0.30000   0.60000   0.70000   |    0.64040   1.10920   1.04577    |
 |   369    0.30000   0.60000   0.80000   |    0.64040   1.10920   1.30721    |
 |   370    0.30000   0.60000   0.90000   |    0.64040   1.10920   1.56865    |
 |   371    0.30000   0.70000   0.00000   |    0.64040   1.35569  -0.87147    |
 |   372    0.30000   0.70000   0.10000   |    0.64040   1.35569  -0.61003    |
 |   373    0.30000   0.70000   0.20000   |    0.64040   1.35569  -0.34859    |
 |   374    0.30000   0.70000   0.30000   |    0.64040   1.35569  -0.08715    |
 |   375    0.30000   0.70000   0.40000   |    0.64040   1.35569   0.17429    |
 |   376    0.30000   0.70000   0.50000   |    0.64040   1.35569   0.43574    |
 |   377    0.30000   0.70000   0.60000   |    0.64040   1.35569   0.69718    |
 |   378    0.30000   0.70000   0.70000   |    0.64040   1.35569   0.95862    |
 |   379    0.30000   0.70000   0.80000   |    0.64040   1.35569   1.22006    |
 |   380    0.30000   0.70000   0.90000   |    0.64040   1.35569   1.48150    |
 |   381    0.30000   0.80000   0.00000   |    0.64040   1.60218  -0.95862    |
 |   382    0.30000   0.80000   0.10000   |    0.64040   1.60218  -0.69718    |
 |   383    0.30000   0.80000   0.20000   |    0.64040   1.60218  -0.43574    |
 |   384    0.30000   0.80000   0.30000   |    0.64040   1.60218  -0.17429    |
 |   385    0.30000   0.80000   0.40000   |    0.64040   1.60218   0.08715    |
 |   386    0.30000   0.80000   0.50000   |    0.64040   1.60218   0.34859    |
 |   387    0.30000   0.80000   0.60000   |    0.64040   1.60218   0.61003    |
 |   388    0.30000   0.80000   0.70000   |    0.64040   1.60218   0.87147    |
 |   389    0.30000   0.80000   0.80000   |    0.64040   1.60218   1.13292    |
 |   390    0.30000   0.80000   0.90000   |    0.64040   1.60218   1.39436    |
 |   391    0.30000   0.90000   0.00000   |    0.64040   1.84867  -1.04577    |
 |   392    0.30000   0.90000   0.10000   |    0.64040   1.84867  -0.78433    |
 |   393    0.30000   0.90000   0.20000   |    0.64040   1.84867  -0.52288    |
 |   394    0.30000   0.90000   0.30000   |    0.64040   1.84867  -0.26144    |
 |   395    0.30000   0.90000   0.40000   |    0.64040   1.84867  -0.00000    |
 |   396    0.30000   0.90000   0.50000   |    0.64040   1.84867   0.26144    |
 |   397    0.30000   0.90000   0.60000   |    0.64040   1.84867   0.52288    |
 |   398    0.30000   0.90000   0.70000   |    0.64040   1.84867   0.78433    |
 |   399    0.30000   0.90000   0.80000   |    0.64040   1.84867   1.04577    |
 |   400    0.30000   0.90000   0.90000   |    0.64040   1.84867   1.30721    |
 |   401    0.40000   0.00000   0.00000   |    0.85386  -0.49298  -0.34859    |
 |   402    0.40000   0.00000   0.10000   |    0.85386  -0.49298  -0.08715    |
 |   403    0.40000   0.00000   0.20000   |    0.85386  -0.49298   0.17429    |
 |   404    0.40000   0.00000   0.30000   |    0.85386  -0.49298   0.43574    |
 |   405    0.40000   0.00000   0.40000   |    0.85386  -0.49298   0.69718    |
 |   406    0.40000   0.00000   0.50000   |    0.85386  -0.49298   0.95862    |
 |   407    0.40000   0.00000   0.60000   |    0.85386  -0.49298   1.22006    |
 |   408    0.40000   0.00000   0.70000   |    0.85386  -0.49298   1.48150    |
 |   409    0.40000   0.00000   0.80000   |    0.85386  -0.49298   1.74295    |
 |   410    0.40000   0.00000   0.90000   |    0.85386  -0.49298   2.00439    |
 |   411    0.40000   0.10000   0.00000   |    0.85386  -0.24649  -0.43574    |
 |   412    0.40000   0.10000   0.10000   |    0.85386  -0.24649  -0.17429    |
 |   413    0.40000   0.10000   0.20000   |    0.85386  -0.24649   0.08715    |
 |   414    0.40000   0.10000   0.30000   |    0.85386  -0.24649   0.34859    |
 |   415    0.40000   0.10000   0.40000   |    0.85386  -0.24649   0.61003    |
 |   416    0.40000   0.10000   0.50000   |    0.85386  -0.24649   0.87147    |
 |   417    0.40000   0.10000   0.60000   |    0.85386  -0.24649   1.13292    |
 |   418    0.40000   0.10000   0.70000   |    0.85386  -0.24649   1.39436    |
 |   419    0.40000   0.10000   0.80000   |    0.85386  -0.24649   1.65580    |
 |   420    0.40000   0.10000   0.90000   |    0.85386  -0.24649   1.91724    |
 |   421    0.40000   0.20000   0.00000   |    0.85386   0.00000  -0.52288    |
 |   422    0.40000   0.20000   0.10000   |    0.85386   0.00000  -0.26144    |
 |   423    0.40000   0.20000   0.20000   |    0.85386   0.00000   0.00000    |
 |   424    0.40000   0.20000   0.30000   |    0.85386   0.00000   0.26144    |
 |   425    0.40000   0.20000   0.40000   |    0.85386   0.00000   0.52288    |
 |   426    0.40000   0.20000   0.50000   |    0.85386   0.00000   0.78433    |
 |   427    0.40000   0.20000   0.60000   |    0.85386   0.00000   1.04577    |
 |   428    0.40000   0.20000   0.70000   |    0.85386   0.00000   1.30721    |
 |   429    0.40000   0.20000   0.80000   |    0.85386   0.00000   1.56865    |
 |   430    0.40000   0.20000   0.90000   |    0.85386   0.00000   1.83009    |
 |   431    0.40000   0.30000   0.00000   |    0.85386   0.24649  -0.61003    |
 |   432    0.40000   0.30000   0.10000   |    0.85386   0.24649  -0.34859    |
 |   433    0.40000   0.30000   0.20000   |    0.85386   0.24649  -0.08715    |
 |   434    0.40000   0.30000   0.30000   |    0.85386   0.24649   0.17429    |
 |   435    0.40000   0.30000   0.40000   |    0.85386   0.24649   0.43574    |
 |   436    0.40000   0.30000   0.50000   |    0.85386   0.24649   0.69718    |
 |   437    0.40000   0.30000   0.60000   |    0.85386   0.24649   0.95862    |
 |   438    0.40000   0.30000   0.70000   |    0.85386   0.24649   1.22006    |
 |   439    0.40000   0.30000   0.80000   |    0.85386   0.24649   1.48150    |
 |   440    0.40000   0.30000   0.90000   |    0.85386   0.24649   1.74295    |
 |   441    0.40000   0.40000   0.00000   |    0.85386   0.49298  -0.69718    |
 |   442    0.40000   0.40000   0.10000   |    0.85386   0.49298  -0.43574    |
 |   443    0.40000   0.40000   0.20000   |    0.85386   0.49298  -0.17429    |
 |   444    0.40000   0.40000   0.30000   |    0.85386   0.49298   0.08715    |
 |   445    0.40000   0.40000   0.40000   |    0.85386   0.49298   0.34859    |
 |   446    0.40000   0.40000   0.50000   |    0.85386   0.49298   0.61003    |
 |   447    0.40000   0.40000   0.60000   |    0.85386   0.49298   0.87147    |
 |   448    0.40000   0.40000   0.70000   |    0.85386   0.49298   1.13292    |
 |   449    0.40000   0.40000   0.80000   |    0.85386   0.49298   1.39436    |
 |   450    0.40000   0.40000   0.90000   |    0.85386   0.49298   1.65580    |
 |   451    0.40000   0.50000   0.00000   |    0.85386   0.73947  -0.78433    |
 |   452    0.40000   0.50000   0.10000   |    0.85386   0.73947  -0.52288    |
 |   453    0.40000   0.50000   0.20000   |    0.85386   0.73947  -0.26144    |
 |   454    0.40000   0.50000   0.30000   |    0.85386   0.73947  -0.00000    |
 |   455    0.40000   0.50000   0.40000   |    0.85386   0.73947   0.26144    |
 |   456    0.40000   0.50000   0.50000   |    0.85386   0.73947   0.52288    |
 |   457    0.40000   0.50000   0.60000   |    0.85386   0.73947   0.78433    |
 |   458    0.40000   0.50000   0.70000   |    0.85386   0.73947   1.04577    |
 |   459    0.40000   0.50000   0.80000   |    0.85386   0.73947   1.30721    |
 |   460    0.40000   0.50000   0.90000   |    0.85386   0.73947   1.56865    |
 |   461    0.40000   0.60000   0.00000   |    0.85386   0.98596  -0.87147    |
 |   462    0.40000   0.60000   0.10000   |    0.85386   0.98596  -0.61003    |
 |   463    0.40000   0.60000   0.20000   |    0.85386   0.98596  -0.34859    |
 |   464    0.40000   0.60000   0.30000   |    0.85386   0.98596  -0.08715    |
 |   465    0.40000   0.60000   0.40000   |    0.85386   0.98596   0.17429    |
 |   466    0.40000   0.60000   0.50000   |    0.85386   0.98596   0.43574    |
 |   467    0.40000   0.60000   0.60000   |    0.85386   0.98596   0.69718    |
 |   468    0.40000   0.60000   0.70000   |    0.85386   0.98596   0.95862    |
 |   469    0.40000   0.60000   0.80000   |    0.85386   0.98596   1.22006    |
 |   470    0.40000   0.60000   0.90000   |    0.85386   0.98596   1.48150    |
 |   471    0.40000   0.70000   0.00000   |    0.85386   1.23245  -0.95862    |
 |   472    0.40000   0.70000   0.10000   |    0.85386   1.23245  -0.69718    |
 |   473    0.40000   0.70000   0.20000   |    0.85386   1.23245  -0.43574    |
 |   474    0.40000   0.70000   0.30000   |    0.85386   1.23245  -0.17429    |
 |   475    0.40000   0.70000   0.40000   |    0.85386   1.23245   0.08715    |
 |   476    0.40000   0.70000   0.50000   |    0.85386   1.23245   0.34859    |
 |   477    0.40000   0.70000   0.60000   |    0.85386   1.23245   0.61003    |
 |   478    0.40000   0.70000   0.70000   |    0.85386   1.23245   0.87147    |
 |   479    0.40000   0.70000   0.80000   |    0.85386   1.23245   1.13292    |
 |   480    0.40000   0.70000   0.90000   |    0.85386   1.23245   1.39436    |
 |   481    0.40000   0.80000   0.00000   |    0.85386   1.47894  -1.04577    |
 |   482    0.40000   0.80000   0.10000   |    0.85386   1.47894  -0.78433    |
 |   483    0.40000   0.80000   0.20000   |    0.85386   1.47894  -0.52288    |
 |   484    0.40000   0.80000   0.30000   |    0.85386   1.47894  -0.26144    |
 |   485    0.40000   0.80000   0.40000   |    0.85386   1.47894  -0.00000    |
 |   486    0.40000   0.80000   0.50000   |    0.85386   1.47894   0.26144    |
 |   487    0.40000   0.80000   0.60000   |    0.85386   1.47894   0.52288    |
 |   488    0.40000   0.80000   0.70000   |    0.85386   1.47894   0.78433    |
 |   489    0.40000   0.80000   0.80000   |    0.85386   1.47894   1.04577    |
 |   490    0.40000   0.80000   0.90000   |    0.85386   1.47894   1.30721    |
 |   491    0.40000   0.90000   0.00000   |    0.85386   1.72543  -1.13292    |
 |   492    0.40000   0.90000   0.10000   |    0.85386   1.72543  -0.87147    |
 |   493    0.40000   0.90000   0.20000   |    0.85386   1.72543  -0.61003    |
 |   494    0.40000   0.90000   0.30000   |    0.85386   1.72543  -0.34859    |
 |   495    0.40000   0.90000   0.40000   |    0.85386   1.72543  -0.08715    |
 |   496    0.40000   0.90000   0.50000   |    0.85386   1.72543   0.17429    |
 |   497    0.40000   0.90000   0.60000   |    0.85386   1.72543   0.43574    |
 |   498    0.40000   0.90000   0.70000   |    0.85386   1.72543   0.69718    |
 |   499    0.40000   0.90000   0.80000   |    0.85386   1.72543   0.95862    |
 |   500    0.40000   0.90000   0.90000   |    0.85386   1.72543   1.22006    |
 |   501    0.50000   0.00000   0.00000   |    1.06733  -0.61622  -0.43574    |
 |   502    0.50000   0.00000   0.10000   |    1.06733  -0.61622  -0.17429    |
 |   503    0.50000   0.00000   0.20000   |    1.06733  -0.61622   0.08715    |
 |   504    0.50000   0.00000   0.30000   |    1.06733  -0.61622   0.34859    |
 |   505    0.50000   0.00000   0.40000   |    1.06733  -0.61622   0.61003    |
 |   506    0.50000   0.00000   0.50000   |    1.06733  -0.61622   0.87147    |
 |   507    0.50000   0.00000   0.60000   |    1.06733  -0.61622   1.13292    |
 |   508    0.50000   0.00000   0.70000   |    1.06733  -0.61622   1.39436    |
 |   509    0.50000   0.00000   0.80000   |    1.06733  -0.61622   1.65580    |
 |   510    0.50000   0.00000   0.90000   |    1.06733  -0.61622   1.91724    |
 |   511    0.50000   0.10000   0.00000   |    1.06733  -0.36973  -0.52288    |
 |   512    0.50000   0.10000   0.10000   |    1.06733  -0.36973  -0.26144    |
 |   513    0.50000   0.10000   0.20000   |    1.06733  -0.36973   0.00000    |
 |   514    0.50000   0.10000   0.30000   |    1.06733  -0.36973   0.26144    |
 |   515    0.50000   0.10000   0.40000   |    1.06733  -0.36973   0.52288    |
 |   516    0.50000   0.10000   0.50000   |    1.06733  -0.36973   0.78433    |
 |   517    0.50000   0.10000   0.60000   |    1.06733  -0.36973   1.04577    |
 |   518    0.50000   0.10000   0.70000   |    1.06733  -0.36973   1.30721    |
 |   519    0.50000   0.10000   0.80000   |    1.06733  -0.36973   1.56865    |
 |   520    0.50000   0.10000   0.90000   |    1.06733  -0.36973   1.83009    |
 |   521    0.50000   0.20000   0.00000   |    1.06733  -0.12324  -0.61003    |
 |   522    0.50000   0.20000   0.10000   |    1.06733  -0.12324  -0.34859    |
 |   523    0.50000   0.20000   0.20000   |    1.06733  -0.12324  -0.08715    |
 |   524    0.50000   0.20000   0.30000   |    1.06733  -0.12324   0.17429    |
 |   525    0.50000   0.20000   0.40000   |    1.06733  -0.12324   0.43574    |
 |   526    0.50000   0.20000   0.50000   |    1.06733  -0.12324   0.69718    |
 |   527    0.50000   0.20000   0.60000   |    1.06733  -0.12324   0.95862    |
 |   528    0.50000   0.20000   0.70000   |    1.06733  -0.12324   1.22006    |
 |   529    0.50000   0.20000   0.80000   |    1.06733  -0.12324   1.48150    |
 |   530    0.50000   0.20000   0.90000   |    1.06733  -0.12324   1.74295    |
 |   531    0.50000   0.30000   0.00000   |    1.06733   0.12324  -0.69718    |
 |   532    0.50000   0.30000   0.10000   |    1.06733   0.12324  -0.43574    |
 |   533    0.50000   0.30000   0.20000   |    1.06733   0.12324  -0.17429    |
 |   534    0.50000   0.30000   0.30000   |    1.06733   0.12324   0.08715    |
 |   535    0.50000   0.30000   0.40000   |    1.06733   0.12324   0.34859    |
 |   536    0.50000   0.30000   0.50000   |    1.06733   0.12324   0.61003    |
 |   537    0.50000   0.30000   0.60000   |    1.06733   0.12324   0.87147    |
 |   538    0.50000   0.30000   0.70000   |    1.06733   0.12324   1.13292    |
 |   539    0.50000   0.30000   0.80000   |    1.06733   0.12324   1.39436    |
 |   540    0.50000   0.30000   0.90000   |    1.06733   0.12324   1.65580    |
 |   541    0.50000   0.40000   0.00000   |    1.06733   0.36973  -0.78433    |
 |   542    0.50000   0.40000   0.10000   |    1.06733   0.36973  -0.52288    |
 |   543    0.50000   0.40000   0.20000   |    1.06733   0.36973  -0.26144    |
 |   544    0.50000   0.40000   0.30000   |    1.06733   0.36973  -0.00000    |
 |   545    0.50000   0.40000   0.40000   |    1.06733   0.36973   0.26144    |
 |   546    0.50000   0.40000   0.50000   |    1.06733   0.36973   0.52288    |
 |   547    0.50000   0.40000   0.60000   |    1.06733   0.36973   0.78433    |
 |   548    0.50000   0.40000   0.70000   |    1.06733   0.36973   1.04577    |
 |   549    0.50000   0.40000   0.80000   |    1.06733   0.36973   1.30721    |
 |   550    0.50000   0.40000   0.90000   |    1.06733   0.36973   1.56865    |
 |   551    0.50000   0.50000   0.00000   |    1.06733   0.61622  -0.87147    |
 |   552    0.50000   0.50000   0.10000   |    1.06733   0.61622  -0.61003    |
 |   553    0.50000   0.50000   0.20000   |    1.06733   0.61622  -0.34859    |
 |   554    0.50000   0.50000   0.30000   |    1.06733   0.61622  -0.08715    |
 |   555    0.50000   0.50000   0.40000   |    1.06733   0.61622   0.17429    |
 |   556    0.50000   0.50000   0.50000   |    1.06733   0.61622   0.43574    |
 |   557    0.50000   0.50000   0.60000   |    1.06733   0.61622   0.69718    |
 |   558    0.50000   0.50000   0.70000   |    1.06733   0.61622   0.95862    |
 |   559    0.50000   0.50000   0.80000   |    1.06733   0.61622   1.22006    |
 |   560    0.50000   0.50000   0.90000   |    1.06733   0.61622   1.48150    |
 |   561    0.50000   0.60000   0.00000   |    1.06733   0.86271  -0.95862    |
 |   562    0.50000   0.60000   0.10000   |    1.06733   0.86271  -0.69718    |
 |   563    0.50000   0.60000   0.20000   |    1.06733   0.86271  -0.43574    |
 |   564    0.50000   0.60000   0.30000   |    1.06733   0.86271  -0.17429    |
 |   565    0.50000   0.60000   0.40000   |    1.06733   0.86271   0.08715    |
 |   566    0.50000   0.60000   0.50000   |    1.06733   0.86271   0.34859    |
 |   567    0.50000   0.60000   0.60000   |    1.06733   0.86271   0.61003    |
 |   568    0.50000   0.60000   0.70000   |    1.06733   0.86271   0.87147    |
 |   569    0.50000   0.60000   0.80000   |    1.06733   0.86271   1.13292    |
 |   570    0.50000   0.60000   0.90000   |    1.06733   0.86271   1.39436    |
 |   571    0.50000   0.70000   0.00000   |    1.06733   1.10920  -1.04577    |
 |   572    0.50000   0.70000   0.10000   |    1.06733   1.10920  -0.78433    |
 |   573    0.50000   0.70000   0.20000   |    1.06733   1.10920  -0.52288    |
 |   574    0.50000   0.70000   0.30000   |    1.06733   1.10920  -0.26144    |
 |   575    0.50000   0.70000   0.40000   |    1.06733   1.10920  -0.00000    |
 |   576    0.50000   0.70000   0.50000   |    1.06733   1.10920   0.26144    |
 |   577    0.50000   0.70000   0.60000   |    1.06733   1.10920   0.52288    |
 |   578    0.50000   0.70000   0.70000   |    1.06733   1.10920   0.78433    |
 |   579    0.50000   0.70000   0.80000   |    1.06733   1.10920   1.04577    |
 |   580    0.50000   0.70000   0.90000   |    1.06733   1.10920   1.30721    |
 |   581    0.50000   0.80000   0.00000   |    1.06733   1.35569  -1.13292    |
 |   582    0.50000   0.80000   0.10000   |    1.06733   1.35569  -0.87147    |
 |   583    0.50000   0.80000   0.20000   |    1.06733   1.35569  -0.61003    |
 |   584    0.50000   0.80000   0.30000   |    1.06733   1.35569  -0.34859    |
 |   585    0.50000   0.80000   0.40000   |    1.06733   1.35569  -0.08715    |
 |   586    0.50000   0.80000   0.50000   |    1.06733   1.35569   0.17429    |
 |   587    0.50000   0.80000   0.60000   |    1.06733   1.35569   0.43574    |
 |   588    0.50000   0.80000   0.70000   |    1.06733   1.35569   0.69718    |
 |   589    0.50000   0.80000   0.80000   |    1.06733   1.35569   0.95862    |
 |   590    0.50000   0.80000   0.90000   |    1.06733   1.35569   1.22006    |
 |   591    0.50000   0.90000   0.00000   |    1.06733   1.60218  -1.22006    |
 |   592    0.50000   0.90000   0.10000   |    1.06733   1.60218  -0.95862    |
 |   593    0.50000   0.90000   0.20000   |    1.06733   1.60218  -0.69718    |
 |   594    0.50000   0.90000   0.30000   |    1.06733   1.60218  -0.43574    |
 |   595    0.50000   0.90000   0.40000   |    1.06733   1.60218  -0.17429    |
 |   596    0.50000   0.90000   0.50000   |    1.06733   1.60218   0.08715    |
 |   597    0.50000   0.90000   0.60000   |    1.06733   1.60218   0.34859    |
 |   598    0.50000   0.90000   0.70000   |    1.06733   1.60218   0.61003    |
 |   599    0.50000   0.90000   0.80000   |    1.06733   1.60218   0.87147    |
 |   600    0.50000   0.90000   0.90000   |    1.06733   1.60218   1.13292    |
 |   601    0.60000   0.00000   0.00000   |    1.28080  -0.73947  -0.52288    |
 |   602    0.60000   0.00000   0.10000   |    1.28080  -0.73947  -0.26144    |
 |   603    0.60000   0.00000   0.20000   |    1.28080  -0.73947   0.00000    |
 |   604    0.60000   0.00000   0.30000   |    1.28080  -0.73947   0.26144    |
 |   605    0.60000   0.00000   0.40000   |    1.28080  -0.73947   0.52288    |
 |   606    0.60000   0.00000   0.50000   |    1.28080  -0.73947   0.78433    |
 |   607    0.60000   0.00000   0.60000   |    1.28080  -0.73947   1.04577    |
 |   608    0.60000   0.00000   0.70000   |    1.28080  -0.73947   1.30721    |
 |   609    0.60000   0.00000   0.80000   |    1.28080  -0.73947   1.56865    |
 |   610    0.60000   0.00000   0.90000   |    1.28080  -0.73947   1.83009    |
 |   611    0.60000   0.10000   0.00000   |    1.28080  -0.49298  -0.61003    |
 |   612    0.60000   0.10000   0.10000   |    1.28080  -0.49298  -0.34859    |
 |   613    0.60000   0.10000   0.20000   |    1.28080  -0.49298  -0.08715    |
 |   614    0.60000   0.10000   0.30000   |    1.28080  -0.49298   0.17429    |
 |   615    0.60000   0.10000   0.40000   |    1.28080  -0.49298   0.43574    |
 |   616    0.60000   0.10000   0.50000   |    1.28080  -0.49298   0.69718    |
 |   617    0.60000   0.10000   0.60000   |    1.28080  -0.49298   0.95862    |
 |   618    0.60000   0.10000   0.70000   |    1.28080  -0.49298   1.22006    |
 |   619    0.60000   0.10000   0.80000   |    1.28080  -0.49298   1.48150    |
 |   620    0.60000   0.10000   0.90000   |    1.28080  -0.49298   1.74295    |
 |   621    0.60000   0.20000   0.00000   |    1.28080  -0.24649  -0.69718    |
 |   622    0.60000   0.20000   0.10000   |    1.28080  -0.24649  -0.43574    |
 |   623    0.60000   0.20000   0.20000   |    1.28080  -0.24649  -0.17429    |
 |   624    0.60000   0.20000   0.30000   |    1.28080  -0.24649   0.08715    |
 |   625    0.60000   0.20000   0.40000   |    1.28080  -0.24649   0.34859    |
 |   626    0.60000   0.20000   0.50000   |    1.28080  -0.24649   0.61003    |
 |   627    0.60000   0.20000   0.60000   |    1.28080  -0.24649   0.87147    |
 |   628    0.60000   0.20000   0.70000   |    1.28080  -0.24649   1.13292    |
 |   629    0.60000   0.20000   0.80000   |    1.28080  -0.24649   1.39436    |
 |   630    0.60000   0.20000   0.90000   |    1.28080  -0.24649   1.65580    |
 |   631    0.60000   0.30000   0.00000   |    1.28080   0.00000  -0.78433    |
 |   632    0.60000   0.30000   0.10000   |    1.28080   0.00000  -0.52288    |
 |   633    0.60000   0.30000   0.20000   |    1.28080   0.00000  -0.26144    |
 |   634    0.60000   0.30000   0.30000   |    1.28080   0.00000   0.00000    |
 |   635    0.60000   0.30000   0.40000   |    1.28080   0.00000   0.26144    |
 |   636    0.60000   0.30000   0.50000   |    1.28080   0.00000   0.52288    |
 |   637    0.60000   0.30000   0.60000   |    1.28080   0.00000   0.78433    |
 |   638    0.60000   0.30000   0.70000   |    1.28080   0.00000   1.04577    |
 |   639    0.60000   0.30000   0.80000   |    1.28080   0.00000   1.30721    |
 |   640    0.60000   0.30000   0.90000   |    1.28080   0.00000   1.56865    |
 |   641    0.60000   0.40000   0.00000   |    1.28080   0.24649  -0.87147    |
 |   642    0.60000   0.40000   0.10000   |    1.28080   0.24649  -0.61003    |
 |   643    0.60000   0.40000   0.20000   |    1.28080   0.24649  -0.34859    |
 |   644    0.60000   0.40000   0.30000   |    1.28080   0.24649  -0.08715    |
 |   645    0.60000   0.40000   0.40000   |    1.28080   0.24649   0.17429    |
 |   646    0.60000   0.40000   0.50000   |    1.28080   0.24649   0.43574    |
 |   647    0.60000   0.40000   0.60000   |    1.28080   0.24649   0.69718    |
 |   648    0.60000   0.40000   0.70000   |    1.28080   0.24649   0.95862    |
 |   649    0.60000   0.40000   0.80000   |    1.28080   0.24649   1.22006    |
 |   650    0.60000   0.40000   0.90000   |    1.28080   0.24649   1.48150    |
 |   651    0.60000   0.50000   0.00000   |    1.28080   0.49298  -0.95862    |
 |   652    0.60000   0.50000   0.10000   |    1.28080   0.49298  -0.69718    |
 |   653    0.60000   0.50000   0.20000   |    1.28080   0.49298  -0.43574    |
 |   654    0.60000   0.50000   0.30000   |    1.28080   0.49298  -0.17429    |
 |   655    0.60000   0.50000   0.40000   |    1.28080   0.49298   0.08715    |
 |   656    0.60000   0.50000   0.50000   |    1.28080   0.49298   0.34859    |
 |   657    0.60000   0.50000   0.60000   |    1.28080   0.49298   0.61003    |
 |   658    0.60000   0.50000   0.70000   |    1.28080   0.49298   0.87147    |
 |   659    0.60000   0.50000   0.80000   |    1.28080   0.49298   1.13292    |
 |   660    0.60000   0.50000   0.90000   |    1.28080   0.49298   1.39436    |
 |   661    0.60000   0.60000   0.00000   |    1.28080   0.73947  -1.04577    |
 |   662    0.60000   0.60000   0.10000   |    1.28080   0.73947  -0.78433    |
 |   663    0.60000   0.60000   0.20000   |    1.28080   0.73947  -0.52288    |
 |   664    0.60000   0.60000   0.30000   |    1.28080   0.73947  -0.26144    |
 |   665    0.60000   0.60000   0.40000   |    1.28080   0.73947  -0.00000    |
 |   666    0.60000   0.60000   0.50000   |    1.28080   0.73947   0.26144    |
 |   667    0.60000   0.60000   0.60000   |    1.28080   0.73947   0.52288    |
 |   668    0.60000   0.60000   0.70000   |    1.28080   0.73947   0.78433    |
 |   669    0.60000   0.60000   0.80000   |    1.28080   0.73947   1.04577    |
 |   670    0.60000   0.60000   0.90000   |    1.28080   0.73947   1.30721    |
 |   671    0.60000   0.70000   0.00000   |    1.28080   0.98596  -1.13292    |
 |   672    0.60000   0.70000   0.10000   |    1.28080   0.98596  -0.87147    |
 |   673    0.60000   0.70000   0.20000   |    1.28080   0.98596  -0.61003    |
 |   674    0.60000   0.70000   0.30000   |    1.28080   0.98596  -0.34859    |
 |   675    0.60000   0.70000   0.40000   |    1.28080   0.98596  -0.08715    |
 |   676    0.60000   0.70000   0.50000   |    1.28080   0.98596   0.17429    |
 |   677    0.60000   0.70000   0.60000   |    1.28080   0.98596   0.43574    |
 |   678    0.60000   0.70000   0.70000   |    1.28080   0.98596   0.69718    |
 |   679    0.60000   0.70000   0.80000   |    1.28080   0.98596   0.95862    |
 |   680    0.60000   0.70000   0.90000   |    1.28080   0.98596   1.22006    |
 |   681    0.60000   0.80000   0.00000   |    1.28080   1.23245  -1.22006    |
 |   682    0.60000   0.80000   0.10000   |    1.28080   1.23245  -0.95862    |
 |   683    0.60000   0.80000   0.20000   |    1.28080   1.23245  -0.69718    |
 |   684    0.60000   0.80000   0.30000   |    1.28080   1.23245  -0.43574    |
 |   685    0.60000   0.80000   0.40000   |    1.28080   1.23245  -0.17429    |
 |   686    0.60000   0.80000   0.50000   |    1.28080   1.23245   0.08715    |
 |   687    0.60000   0.80000   0.60000   |    1.28080   1.23245   0.34859    |
 |   688    0.60000   0.80000   0.70000   |    1.28080   1.23245   0.61003    |
 |   689    0.60000   0.80000   0.80000   |    1.28080   1.23245   0.87147    |
 |   690    0.60000   0.80000   0.90000   |    1.28080   1.23245   1.13292    |
 |   691    0.60000   0.90000   0.00000   |    1.28080   1.47894  -1.30721    |
 |   692    0.60000   0.90000   0.10000   |    1.28080   1.47894  -1.04577    |
 |   693    0.60000   0.90000   0.20000   |    1.28080   1.47894  -0.78433    |
 |   694    0.60000   0.90000   0.30000   |    1.28080   1.47894  -0.52288    |
 |   695    0.60000   0.90000   0.40000   |    1.28080   1.47894  -0.26144    |
 |   696    0.60000   0.90000   0.50000   |    1.28080   1.47894  -0.00000    |
 |   697    0.60000   0.90000   0.60000   |    1.28080   1.47894   0.26144    |
 |   698    0.60000   0.90000   0.70000   |    1.28080   1.47894   0.52288    |
 |   699    0.60000   0.90000   0.80000   |    1.28080   1.47894   0.78433    |
 |   700    0.60000   0.90000   0.90000   |    1.28080   1.47894   1.04577    |
 |   701    0.70000   0.00000   0.00000   |    1.49426  -0.86271  -0.61003    |
 |   702    0.70000   0.00000   0.10000   |    1.49426  -0.86271  -0.34859    |
 |   703    0.70000   0.00000   0.20000   |    1.49426  -0.86271  -0.08715    |
 |   704    0.70000   0.00000   0.30000   |    1.49426  -0.86271   0.17429    |
 |   705    0.70000   0.00000   0.40000   |    1.49426  -0.86271   0.43574    |
 |   706    0.70000   0.00000   0.50000   |    1.49426  -0.86271   0.69718    |
 |   707    0.70000   0.00000   0.60000   |    1.49426  -0.86271   0.95862    |
 |   708    0.70000   0.00000   0.70000   |    1.49426  -0.86271   1.22006    |
 |   709    0.70000   0.00000   0.80000   |    1.49426  -0.86271   1.48150    |
 |   710    0.70000   0.00000   0.90000   |    1.49426  -0.86271   1.74295    |
 |   711    0.70000   0.10000   0.00000   |    1.49426  -0.61622  -0.69718    |
 |   712    0.70000   0.10000   0.10000   |    1.49426  -0.61622  -0.43574    |
 |   713    0.70000   0.10000   0.20000   |    1.49426  -0.61622  -0.17429    |
 |   714    0.70000   0.10000   0.30000   |    1.49426  -0.61622   0.08715    |
 |   715    0.70000   0.10000   0.40000   |    1.49426  -0.61622   0.34859    |
 |   716    0.70000   0.10000   0.50000   |    1.49426  -0.61622   0.61003    |
 |   717    0.70000   0.10000   0.60000   |    1.49426  -0.61622   0.87147    |
 |   718    0.70000   0.10000   0.70000   |    1.49426  -0.61622   1.13292    |
 |   719    0.70000   0.10000   0.80000   |    1.49426  -0.61622   1.39436    |
 |   720    0.70000   0.10000   0.90000   |    1.49426  -0.61622   1.65580    |
 |   721    0.70000   0.20000   0.00000   |    1.49426  -0.36973  -0.78433    |
 |   722    0.70000   0.20000   0.10000   |    1.49426  -0.36973  -0.52288    |
 |   723    0.70000   0.20000   0.20000   |    1.49426  -0.36973  -0.26144    |
 |   724    0.70000   0.20000   0.30000   |    1.49426  -0.36973   0.00000    |
 |   725    0.70000   0.20000   0.40000   |    1.49426  -0.36973   0.26144    |
 |   726    0.70000   0.20000   0.50000   |    1.49426  -0.36973   0.52288    |
 |   727    0.70000   0.20000   0.60000   |    1.49426  -0.36973   0.78433    |
 |   728    0.70000   0.20000   0.70000   |    1.49426  -0.36973   1.04577    |
 |   729    0.70000   0.20000   0.80000   |    1.49426  -0.36973   1.30721    |
 |   730    0.70000   0.20000   0.90000   |    1.49426  -0.36973   1.56865    |
 |   731    0.70000   0.30000   0.00000   |    1.49426  -0.12324  -0.87147    |
 |   732    0.70000   0.30000   0.10000   |    1.49426  -0.12324  -0.61003    |
 |   733    0.70000   0.30000   0.20000   |    1.49426  -0.12324  -0.34859    |
 |   734    0.70000   0.30000   0.30000   |    1.49426  -0.12324  -0.08715    |
 |   735    0.70000   0.30000   0.40000   |    1.49426  -0.12324   0.17429    |
 |   736    0.70000   0.30000   0.50000   |    1.49426  -0.12324   0.43574    |
 |   737    0.70000   0.30000   0.60000   |    1.49426  -0.12324   0.69718    |
 |   738    0.70000   0.30000   0.70000   |    1.49426  -0.12324   0.95862    |
 |   739    0.70000   0.30000   0.80000   |    1.49426  -0.12324   1.22006    |
 |   740    0.70000   0.30000   0.90000   |    1.49426  -0.12324   1.48150    |
 |   741    0.70000   0.40000   0.00000   |    1.49426   0.12324  -0.95862    |
 |   742    0.70000   0.40000   0.10000   |    1.49426   0.12324  -0.69718    |
 |   743    0.70000   0.40000   0.20000   |    1.49426   0.12324  -0.43574    |
 |   744    0.70000   0.40000   0.30000   |    1.49426   0.12324  -0.17429    |
 |   745    0.70000   0.40000   0.40000   |    1.49426   0.12324   0.08715    |
 |   746    0.70000   0.40000   0.50000   |    1.49426   0.12324   0.34859    |
 |   747    0.70000   0.40000   0.60000   |    1.49426   0.12324   0.61003    |
 |   748    0.70000   0.40000   0.70000   |    1.49426   0.12324   0.87147    |
 |   749    0.70000   0.40000   0.80000   |    1.49426   0.12324   1.13292    |
 |   750    0.70000   0.40000   0.90000   |    1.49426   0.12324   1.39436    |
 |   751    0.70000   0.50000   0.00000   |    1.49426   0.36973  -1.04577    |
 |   752    0.70000   0.50000   0.10000   |    1.49426   0.36973  -0.78433    |
 |   753    0.70000   0.50000   0.20000   |    1.49426   0.36973  -0.52288    |
 |   754    0.70000   0.50000   0.30000   |    1.49426   0.36973  -0.26144    |
 |   755    0.70000   0.50000   0.40000   |    1.49426   0.36973  -0.00000    |
 |   756    0.70000   0.50000   0.50000   |    1.49426   0.36973   0.26144    |
 |   757    0.70000   0.50000   0.60000   |    1.49426   0.36973   0.52288    |
 |   758    0.70000   0.50000   0.70000   |    1.49426   0.36973   0.78433    |
 |   759    0.70000   0.50000   0.80000   |    1.49426   0.36973   1.04577    |
 |   760    0.70000   0.50000   0.90000   |    1.49426   0.36973   1.30721    |
 |   761    0.70000   0.60000   0.00000   |    1.49426   0.61622  -1.13292    |
 |   762    0.70000   0.60000   0.10000   |    1.49426   0.61622  -0.87147    |
 |   763    0.70000   0.60000   0.20000   |    1.49426   0.61622  -0.61003    |
 |   764    0.70000   0.60000   0.30000   |    1.49426   0.61622  -0.34859    |
 |   765    0.70000   0.60000   0.40000   |    1.49426   0.61622  -0.08715    |
 |   766    0.70000   0.60000   0.50000   |    1.49426   0.61622   0.17429    |
 |   767    0.70000   0.60000   0.60000   |    1.49426   0.61622   0.43574    |
 |   768    0.70000   0.60000   0.70000   |    1.49426   0.61622   0.69718    |
 |   769    0.70000   0.60000   0.80000   |    1.49426   0.61622   0.95862    |
 |   770    0.70000   0.60000   0.90000   |    1.49426   0.61622   1.22006    |
 |   771    0.70000   0.70000   0.00000   |    1.49426   0.86271  -1.22006    |
 |   772    0.70000   0.70000   0.10000   |    1.49426   0.86271  -0.95862    |
 |   773    0.70000   0.70000   0.20000   |    1.49426   0.86271  -0.69718    |
 |   774    0.70000   0.70000   0.30000   |    1.49426   0.86271  -0.43574    |
 |   775    0.70000   0.70000   0.40000   |    1.49426   0.86271  -0.17429    |
 |   776    0.70000   0.70000   0.50000   |    1.49426   0.86271   0.08715    |
 |   777    0.70000   0.70000   0.60000   |    1.49426   0.86271   0.34859    |
 |   778    0.70000   0.70000   0.70000   |    1.49426   0.86271   0.61003    |
 |   779    0.70000   0.70000   0.80000   |    1.49426   0.86271   0.87147    |
 |   780    0.70000   0.70000   0.90000   |    1.49426   0.86271   1.13292    |
 |   781    0.70000   0.80000   0.00000   |    1.49426   1.10920  -1.30721    |
 |   782    0.70000   0.80000   0.10000   |    1.49426   1.10920  -1.04577    |
 |   783    0.70000   0.80000   0.20000   |    1.49426   1.10920  -0.78433    |
 |   784    0.70000   0.80000   0.30000   |    1.49426   1.10920  -0.52288    |
 |   785    0.70000   0.80000   0.40000   |    1.49426   1.10920  -0.26144    |
 |   786    0.70000   0.80000   0.50000   |    1.49426   1.10920  -0.00000    |
 |   787    0.70000   0.80000   0.60000   |    1.49426   1.10920   0.26144    |
 |   788    0.70000   0.80000   0.70000   |    1.49426   1.10920   0.52288    |
 |   789    0.70000   0.80000   0.80000   |    1.49426   1.10920   0.78433    |
 |   790    0.70000   0.80000   0.90000   |    1.49426   1.10920   1.04577    |
 |   791    0.70000   0.90000   0.00000   |    1.49426   1.35569  -1.39436    |
 |   792    0.70000   0.90000   0.10000   |    1.49426   1.35569  -1.13292    |
 |   793    0.70000   0.90000   0.20000   |    1.49426   1.35569  -0.87147    |
 |   794    0.70000   0.90000   0.30000   |    1.49426   1.35569  -0.61003    |
 |   795    0.70000   0.90000   0.40000   |    1.49426   1.35569  -0.34859    |
 |   796    0.70000   0.90000   0.50000   |    1.49426   1.35569  -0.08715    |
 |   797    0.70000   0.90000   0.60000   |    1.49426   1.35569   0.17429    |
 |   798    0.70000   0.90000   0.70000   |    1.49426   1.35569   0.43574    |
 |   799    0.70000   0.90000   0.80000   |    1.49426   1.35569   0.69718    |
 |   800    0.70000   0.90000   0.90000   |    1.49426   1.35569   0.95862    |
 |   801    0.80000   0.00000   0.00000   |    1.70773  -0.98596  -0.69718    |
 |   802    0.80000   0.00000   0.10000   |    1.70773  -0.98596  -0.43574    |
 |   803    0.80000   0.00000   0.20000   |    1.70773  -0.98596  -0.17429    |
 |   804    0.80000   0.00000   0.30000   |    1.70773  -0.98596   0.08715    |
 |   805    0.80000   0.00000   0.40000   |    1.70773  -0.98596   0.34859    |
 |   806    0.80000   0.00000   0.50000   |    1.70773  -0.98596   0.61003    |
 |   807    0.80000   0.00000   0.60000   |    1.70773  -0.98596   0.87147    |
 |   808    0.80000   0.00000   0.70000   |    1.70773  -0.98596   1.13292    |
 |   809    0.80000   0.00000   0.80000   |    1.70773  -0.98596   1.39436    |
 |   810    0.80000   0.00000   0.90000   |    1.70773  -0.98596   1.65580    |
 |   811    0.80000   0.10000   0.00000   |    1.70773  -0.73947  -0.78433    |
 |   812    0.80000   0.10000   0.10000   |    1.70773  -0.73947  -0.52288    |
 |   813    0.80000   0.10000   0.20000   |    1.70773  -0.73947  -0.26144    |
 |   814    0.80000   0.10000   0.30000   |    1.70773  -0.73947   0.00000    |
 |   815    0.80000   0.10000   0.40000   |    1.70773  -0.73947   0.26144    |
 |   816    0.80000   0.10000   0.50000   |    1.70773  -0.73947   0.52288    |
 |   817    0.80000   0.10000   0.60000   |    1.70773  -0.73947   0.78433    |
 |   818    0.80000   0.10000   0.70000   |    1.70773  -0.73947   1.04577    |
 |   819    0.80000   0.10000   0.80000   |    1.70773  -0.73947   1.30721    |
 |   820    0.80000   0.10000   0.90000   |    1.70773  -0.73947   1.56865    |
 |   821    0.80000   0.20000   0.00000   |    1.70773  -0.49298  -0.87147    |
 |   822    0.80000   0.20000   0.10000   |    1.70773  -0.49298  -0.61003    |
 |   823    0.80000   0.20000   0.20000   |    1.70773  -0.49298  -0.34859    |
 |   824    0.80000   0.20000   0.30000   |    1.70773  -0.49298  -0.08715    |
 |   825    0.80000   0.20000   0.40000   |    1.70773  -0.49298   0.17429    |
 |   826    0.80000   0.20000   0.50000   |    1.70773  -0.49298   0.43574    |
 |   827    0.80000   0.20000   0.60000   |    1.70773  -0.49298   0.69718    |
 |   828    0.80000   0.20000   0.70000   |    1.70773  -0.49298   0.95862    |
 |   829    0.80000   0.20000   0.80000   |    1.70773  -0.49298   1.22006    |
 |   830    0.80000   0.20000   0.90000   |    1.70773  -0.49298   1.48150    |
 |   831    0.80000   0.30000   0.00000   |    1.70773  -0.24649  -0.95862    |
 |   832    0.80000   0.30000   0.10000   |    1.70773  -0.24649  -0.69718    |
 |   833    0.80000   0.30000   0.20000   |    1.70773  -0.24649  -0.43574    |
 |   834    0.80000   0.30000   0.30000   |    1.70773  -0.24649  -0.17429    |
 |   835    0.80000   0.30000   0.40000   |    1.70773  -0.24649   0.08715    |
 |   836    0.80000   0.30000   0.50000   |    1.70773  -0.24649   0.34859    |
 |   837    0.80000   0.30000   0.60000   |    1.70773  -0.24649   0.61003    |
 |   838    0.80000   0.30000   0.70000   |    1.70773  -0.24649   0.87147    |
 |   839    0.80000   0.30000   0.80000   |    1.70773  -0.24649   1.13292    |
 |   840    0.80000   0.30000   0.90000   |    1.70773  -0.24649   1.39436    |
 |   841    0.80000   0.40000   0.00000   |    1.70773   0.00000  -1.04577    |
 |   842    0.80000   0.40000   0.10000   |    1.70773   0.00000  -0.78433    |
 |   843    0.80000   0.40000   0.20000   |    1.70773   0.00000  -0.52288    |
 |   844    0.80000   0.40000   0.30000   |    1.70773   0.00000  -0.26144    |
 |   845    0.80000   0.40000   0.40000   |    1.70773   0.00000   0.00000    |
 |   846    0.80000   0.40000   0.50000   |    1.70773   0.00000   0.26144    |
 |   847    0.80000   0.40000   0.60000   |    1.70773   0.00000   0.52288    |
 |   848    0.80000   0.40000   0.70000   |    1.70773   0.00000   0.78433    |
 |   849    0.80000   0.40000   0.80000   |    1.70773   0.00000   1.04577    |
 |   850    0.80000   0.40000   0.90000   |    1.70773   0.00000   1.30721    |
 |   851    0.80000   0.50000   0.00000   |    1.70773   0.24649  -1.13292    |
 |   852    0.80000   0.50000   0.10000   |    1.70773   0.24649  -0.87147    |
 |   853    0.80000   0.50000   0.20000   |    1.70773   0.24649  -0.61003    |
 |   854    0.80000   0.50000   0.30000   |    1.70773   0.24649  -0.34859    |
 |   855    0.80000   0.50000   0.40000   |    1.70773   0.24649  -0.08715    |
 |   856    0.80000   0.50000   0.50000   |    1.70773   0.24649   0.17429    |
 |   857    0.80000   0.50000   0.60000   |    1.70773   0.24649   0.43574    |
 |   858    0.80000   0.50000   0.70000   |    1.70773   0.24649   0.69718    |
 |   859    0.80000   0.50000   0.80000   |    1.70773   0.24649   0.95862    |
 |   860    0.80000   0.50000   0.90000   |    1.70773   0.24649   1.22006    |
 |   861    0.80000   0.60000   0.00000   |    1.70773   0.49298  -1.22006    |
 |   862    0.80000   0.60000   0.10000   |    1.70773   0.49298  -0.95862    |
 |   863    0.80000   0.60000   0.20000   |    1.70773   0.49298  -0.69718    |
 |   864    0.80000   0.60000   0.30000   |    1.70773   0.49298  -0.43574    |
 |   865    0.80000   0.60000   0.40000   |    1.70773   0.49298  -0.17429    |
 |   866    0.80000   0.60000   0.50000   |    1.70773   0.49298   0.08715    |
 |   867    0.80000   0.60000   0.60000   |    1.70773   0.49298   0.34859    |
 |   868    0.80000   0.60000   0.70000   |    1.70773   0.49298   0.61003    |
 |   869    0.80000   0.60000   0.80000   |    1.70773   0.49298   0.87147    |
 |   870    0.80000   0.60000   0.90000   |    1.70773   0.49298   1.13292    |
 |   871    0.80000   0.70000   0.00000   |    1.70773   0.73947  -1.30721    |
 |   872    0.80000   0.70000   0.10000   |    1.70773   0.73947  -1.04577    |
 |   873    0.80000   0.70000   0.20000   |    1.70773   0.73947  -0.78433    |
 |   874    0.80000   0.70000   0.30000   |    1.70773   0.73947  -0.52288    |
 |   875    0.80000   0.70000   0.40000   |    1.70773   0.73947  -0.26144    |
 |   876    0.80000   0.70000   0.50000   |    1.70773   0.73947  -0.00000    |
 |   877    0.80000   0.70000   0.60000   |    1.70773   0.73947   0.26144    |
 |   878    0.80000   0.70000   0.70000   |    1.70773   0.73947   0.52288    |
 |   879    0.80000   0.70000   0.80000   |    1.70773   0.73947   0.78433    |
 |   880    0.80000   0.70000   0.90000   |    1.70773   0.73947   1.04577    |
 |   881    0.80000   0.80000   0.00000   |    1.70773   0.98596  -1.39436    |
 |   882    0.80000   0.80000   0.10000   |    1.70773   0.98596  -1.13292    |
 |   883    0.80000   0.80000   0.20000   |    1.70773   0.98596  -0.87147    |
 |   884    0.80000   0.80000   0.30000   |    1.70773   0.98596  -0.61003    |
 |   885    0.80000   0.80000   0.40000   |    1.70773   0.98596  -0.34859    |
 |   886    0.80000   0.80000   0.50000   |    1.70773   0.98596  -0.08715    |
 |   887    0.80000   0.80000   0.60000   |    1.70773   0.98596   0.17429    |
 |   888    0.80000   0.80000   0.70000   |    1.70773   0.98596   0.43574    |
 |   889    0.80000   0.80000   0.80000   |    1.70773   0.98596   0.69718    |
 |   890    0.80000   0.80000   0.90000   |    1.70773   0.98596   0.95862    |
 |   891    0.80000   0.90000   0.00000   |    1.70773   1.23245  -1.48150    |
 |   892    0.80000   0.90000   0.10000   |    1.70773   1.23245  -1.22006    |
 |   893    0.80000   0.90000   0.20000   |    1.70773   1.23245  -0.95862    |
 |   894    0.80000   0.90000   0.30000   |    1.70773   1.23245  -0.69718    |
 |   895    0.80000   0.90000   0.40000   |    1.70773   1.23245  -0.43574    |
 |   896    0.80000   0.90000   0.50000   |    1.70773   1.23245  -0.17429    |
 |   897    0.80000   0.90000   0.60000   |    1.70773   1.23245   0.08715    |
 |   898    0.80000   0.90000   0.70000   |    1.70773   1.23245   0.34859    |
 |   899    0.80000   0.90000   0.80000   |    1.70773   1.23245   0.61003    |
[...]
 |                 818           40            8           1                  |
 |                 819           40            8           1                  |
 |                 820           40            8           1                  |
 |                 821           40            8           1                  |
 |                 822           40            8           1                  |
 |                 823           40            8           1                  |
 |                 824           40            8           1                  |
 |                 825           40            8           1                  |
 |                 826           40            8           1                  |
 |                 827           40            8           1                  |
 |                 828           40            8           1                  |
 |                 829           40            8           1                  |
 |                 830           40            8           1                  |
 |                 831           40            8           1                  |
 |                 832           40            8           1                  |
 |                 833           40            8           1                  |
 |                 834           40            8           1                  |
 |                 835           40            8           1                  |
 |                 836           40            8           1                  |
 |                 837           40            8           1                  |
 |                 838           40            8           1                  |
 |                 839           40            8           1                  |
 |                 840           40            8           1                  |
 |                 841           40            8           1                  |
 |                 842           40            8           1                  |
 |                 843           40            8           1                  |
 |                 844           40            8           1                  |
 |                 845           40            8           1                  |
 |                 846           40            8           1                  |
 |                 847           40            8           1                  |
 |                 848           40            8           1                  |
 |                 849           40            8           1                  |
 |                 850           40            8           1                  |
 |                 851           40            8           1                  |
 |                 852           40            8           1                  |
 |                 853           40            8           1                  |
 |                 854           40            8           1                  |
 |                 855           40            8           1                  |
 |                 856           40            8           1                  |
 |                 857           40            8           1                  |
 |                 858           40            8           1                  |
 |                 859           40            8           1                  |
 |                 860           40            8           1                  |
 |                 861           40            8           1                  |
 |                 862           40            8           1                  |
 |                 863           40            8           1                  |
 |                 864           40            8           1                  |
 |                 865           40            8           1                  |
 |                 866           40            8           1                  |
 |                 867           40            8           1                  |
 |                 868           40            8           1                  |
 |                 869           40            8           1                  |
 |                 870           40            8           1                  |
 |                 871           40            8           1                  |
 |                 872           40            8           1                  |
 |                 873           40            8           1                  |
 |                 874           40            8           1                  |
 |                 875           40            8           1                  |
 |                 876           40            8           1                  |
 |                 877           40            8           1                  |
 |                 878           40            8           1                  |
 |                 879           40            8           1                  |
 |                 880           40            8           1                  |
 |                 881           40            8           1                  |
 |                 882           40            8           1                  |
 |                 883           40            8           1                  |
 |                 884           40            8           1                  |
 |                 885           40            8           1                  |
 |                 886           40            8           1                  |
 |                 887           40            8           1                  |
 |                 888           40            8           1                  |
 |                 889           40            8           1                  |
 |                 890           40            8           1                  |
 |                 891           40            8           1                  |
 |                 892           40            8           1                  |
 |                 893           40            8           1                  |
 |                 894           40            8           1                  |
 |                 895           40            8           1                  |
 |                 896           40            8           1                  |
 |                 897           40            8           1                  |
 |                 898           40            8           1                  |
 |                 899           40            8           1                  |
 |                 900           40            8           1                  |
 |                 901           40            8           1                  |
 |                 902           40            8           1                  |
 |                 903           40            8           1                  |
 |                 904           40            8           1                  |
 |                 905           40            8           1                  |
 |                 906           40            8           1                  |
 |                 907           40            8           1                  |
 |                 908           40            8           1                  |
 |                 909           40            8           1                  |
 |                 910           40            8           1                  |
 |                 911           40            8           1                  |
 |                 912           40            8           1                  |
 |                 913           40            8           1                  |
 |                 914           40            8           1                  |
 |                 915           40            8           1                  |
 |                 916           40            8           1                  |
 |                 917           40            8           1                  |
 |                 918           40            8           1                  |
 |                 919           40            8           1                  |
 |                 920           40            8           1                  |
 |                 921           40            8           1                  |
 |                 922           40            8           1                  |
 |                 923           40            8           1                  |
 |                 924           40            8           1                  |
 |                 925           40            8           1                  |
 |                 926           40            8           1                  |
 |                 927           40            8           1                  |
 |                 928           40            8           1                  |
 |                 929           40            8           1                  |
 |                 930           40            8           1                  |
 |                 931           40            8           1                  |
 |                 932           40            8           1                  |
 |                 933           40            8           1                  |
 |                 934           40            8           1                  |
 |                 935           40            8           1                  |
 |                 936           40            8           1                  |
 |                 937           40            8           1                  |
 |                 938           40            8           1                  |
 |                 939           40            8           1                  |
 |                 940           40            8           1                  |
 |                 941           40            8           1                  |
 |                 942           40            8           1                  |
 |                 943           40            8           1                  |
 |                 944           40            8           1                  |
 |                 945           40            8           1                  |
 |                 946           40            8           1                  |
 |                 947           40            8           1                  |
 |                 948           40            8           1                  |
 |                 949           40            8           1                  |
 |                 950           40            8           1                  |
 |                 951           40            8           1                  |
 |                 952           40            8           1                  |
 |                 953           40            8           1                  |
 |                 954           40            8           1                  |
 |                 955           40            8           1                  |
 |                 956           40            8           1                  |
 |                 957           40            8           1                  |
 |                 958           40            8           1                  |
 |                 959           40            8           1                  |
 |                 960           40            8           1                  |
 |                 961           40            8           1                  |
 |                 962           40            8           1                  |
 |                 963           40            8           1                  |
 |                 964           40            8           1                  |
 |                 965           40            8           1                  |
 |                 966           40            8           1                  |
 |                 967           40            8           1                  |
 |                 968           40            8           1                  |
 |                 969           40            8           1                  |
 |                 970           40            8           1                  |
 |                 971           40            8           1                  |
 |                 972           40            8           1                  |
 |                 973           40            8           1                  |
 |                 974           40            8           1                  |
 |                 975           40            8           1                  |
 |                 976           40            8           1                  |
 |                 977           40            8           1                  |
 |                 978           40            8           1                  |
 |                 979           40            8           1                  |
 |                 980           40            8           1                  |
 |                 981           40            8           1                  |
 |                 982           40            8           1                  |
 |                 983           40            8           1                  |
 |                 984           40            8           1                  |
 |                 985           40            8           1                  |
 |                 986           40            8           1                  |
 |                 987           40            8           1                  |
 |                 988           40            8           1                  |
 |                 989           40            8           1                  |
 |                 990           40            8           1                  |
 |                 991           40            8           1                  |
 |                 992           40            8           1                  |
 |                 993           40            8           1                  |
 |                 994           40            8           1                  |
 |                 995           40            8           1                  |
 |                 996           40            8           1                  |
 |                 997           40            8           1                  |
 |                 998           40            8           1                  |
 |                 999           40            8           1                  |
 |                1000           40            8           1                  |
 +----------------------------------------------------------------------------+

                   Unitarised projection of Wannier functions                  
                   ------------------------------------------                  
   A_mn = <psi_m|g_n> --> S = A.A^+ --> U = S^-1/2.A
   In dis_project... done
   Using an inner window (linner = T)
   In dis_proj_froz... done

                   Extraction of optimally-connected subspace                  
                   ------------------------------------------                  
 +---------------------------------------------------------------------+<-- DIS
 |  Iter     Omega_I(i-1)      Omega_I(i)      Delta (frac.)    Time   |<-- DIS
 +---------------------------------------------------------------------+<-- DIS
       1       5.03852854       5.03852854       4.441E-16      0.00    <-- DIS
       2       5.03852854       5.03852854       4.441E-16      0.09    <-- DIS
       3       5.03852854       5.03852854       4.441E-16      0.18    <-- DIS

             <<<      Delta < 1.000E-12  over  3 iterations     >>>
             <<< Disentanglement convergence criteria satisfied >>>

        Final Omega_I     5.03852854 (Ang^2)

 +----------------------------------------------------------------------------+

 Time to disentangle bands      0.468 (sec)

 Writing checkpoint file nio.chk... done

 
 *------------------------------- WANNIERISE ---------------------------------*
 +--------------------------------------------------------------------+<-- CONV
 | Iter  Delta Spread     RMS Gradient      Spread (Ang^2)      Time  |<-- CONV
 +--------------------------------------------------------------------+<-- CONV
 
 ------------------------------------------------------------------------------
 Initial State
  WF centre and spread    1  (  0.000000,  0.000000,  0.000000 )     0.52240820
  WF centre and spread    2  (  0.000000,  0.000000,  0.000000 )     0.51541672
  WF centre and spread    3  (  0.000000, -0.000000, -0.000000 )     0.51668875
  WF centre and spread    4  (  0.000000, -0.000000,  0.000000 )     0.51812939
  WF centre and spread    5  (  0.000000, -0.000000,  0.000000 )     0.51803734
  WF centre and spread    6  (  2.943407,  1.699377,  1.201643 )     0.92472008
  WF centre and spread    7  (  2.943407,  1.699377,  1.201643 )     0.92814423
  WF centre and spread    8  (  2.943407,  1.699377,  1.201643 )     0.92841603
  Sum of centres and spreads (  8.830222,  5.098131,  3.604928 )     5.37196075
 
      0     0.537E+01     0.0000000000        5.3719394343       0.37  <-- CONV
        O_D=      0.0000000 O_OD=      0.3334109 O_TOT=      5.3719394 <-- SPRD
 ------------------------------------------------------------------------------
 Final State
  WF centre and spread    1  (  0.000000,  0.000000,  0.000000 )     0.52240820
  WF centre and spread    2  (  0.000000,  0.000000,  0.000000 )     0.51541672
  WF centre and spread    3  (  0.000000, -0.000000, -0.000000 )     0.51668875
  WF centre and spread    4  (  0.000000, -0.000000,  0.000000 )     0.51812939
  WF centre and spread    5  (  0.000000, -0.000000,  0.000000 )     0.51803734
  WF centre and spread    6  (  2.943407,  1.699377,  1.201643 )     0.92472008
  WF centre and spread    7  (  2.943407,  1.699377,  1.201643 )     0.92814423
  WF centre and spread    8  (  2.943407,  1.699377,  1.201643 )     0.92841603
  Sum of centres and spreads (  8.830222,  5.098131,  3.604928 )     5.37196075
 
         Spreads (Ang^2)       Omega I      =     5.038528535
        ================       Omega D      =     0.000000000
                               Omega OD     =     0.333410899
    Final Spread (Ang^2)       Omega Total  =     5.371939434
 ------------------------------------------------------------------------------
 Time for wannierise            0.038 (sec)

 Writing checkpoint file nio.chk... done

 *---------------------------------------------------------------------------*
 |                               PLOTTING                                    |
 *---------------------------------------------------------------------------*
 
 
 Calculating interpolated band-structure
 
 Time to calculate interpolated band structure       1.510 (sec)
 
 Time for plotting              2.087 (sec)
 Total Execution Time          11.096 (sec)

 *===========================================================================*
 |                             TIMING INFORMATION                            |
 *===========================================================================*
 |    Tag                                                Ncalls      Time (s)|
 |---------------------------------------------------------------------------|
 |kmesh: get                                        :         1         0.409|
 |overlap: allocate                                 :         1         0.000|
 |overlap: read                                     :         1         7.889|
 |dis: main                                         :         1         0.468|
 |wann: main                                        :         1         0.038|
 |plot: main                                        :         1         2.087|
 *---------------------------------------------------------------------------*
 
 All done: wannier90 exiting
